# vtk DataFile Version 2.0
FSI_Simulation
ASCII

DATASET UNSTRUCTURED_GRID
POINTS 2042 double
  2.500000  0.410000  0.000000
  2.450000  0.410000  0.000000
  2.500000  0.358750  0.000000
  2.455000  0.345150  0.000000
  2.400000  0.410000  0.000000
  2.500000  0.307500  0.000000
  2.409170  0.352960  0.000000
  2.425000  0.303110  0.000000
  2.350000  0.410000  0.000000
  2.359860  0.354270  0.000000
  2.500000  0.256250  0.000000
  2.450000  0.259810  0.000000
  2.375000  0.303110  0.000000
  2.400000  0.259810  0.000000
  2.300000  0.410000  0.000000
  2.500000  0.205000  0.000000
  2.325000  0.303110  0.000000
  2.425000  0.216510  0.000000
  2.300000  0.346410  0.000000
  2.350000  0.259810  0.000000
  2.375000  0.216510  0.000000
  2.450000  0.173210  0.000000
  2.275000  0.303110  0.000000
  2.250000  0.410000  0.000000
  2.300000  0.259810  0.000000
  2.500000  0.153750  0.000000
  2.400000  0.173210  0.000000
  2.250000  0.346410  0.000000
  2.325000  0.216510  0.000000
  2.350000  0.173210  0.000000
  2.429170  0.133880  0.000000
  2.250000  0.259810  0.000000
  2.225000  0.303110  0.000000
  2.275000  0.216510  0.000000
  2.200000  0.410000  0.000000
  2.197270  0.363510  0.000000
  2.375000  0.129900  0.000000
  2.500000  0.102500  0.000000
  2.300000  0.173210  0.000000
  2.450000  0.086600  0.000000
  2.325000  0.129900  0.000000
  2.200000  0.259810  0.000000
  2.225000  0.216510  0.000000
  2.400000  0.086600  0.000000
  2.250000  0.173210  0.000000
  2.170490  0.306770  0.000000
  2.150000  0.410000  0.000000
  2.350000  0.086600  0.000000
  2.500000  0.051250  0.000000
  2.275000  0.129900  0.000000
  2.135420  0.358250  0.000000
  2.429170  0.044630  0.000000
  2.175000  0.216510  0.000000
  2.300000  0.086600  0.000000
  2.150000  0.259810  0.000000
  2.200000  0.173210  0.000000
  2.375000  0.043300  0.000000
  2.225000  0.129900  0.000000
  2.112500  0.313250  0.000000
  2.100000  0.410000  0.000000
  2.325000  0.043300  0.000000
  2.250000  0.086600  0.000000
  2.500000  0.000000  0.000000
  2.450000  0.000000  0.000000
  2.125000  0.216510  0.000000
  2.400000  0.000000  0.000000
  2.150000  0.173210  0.000000
  2.075000  0.366700  0.000000
  2.175000  0.129900  0.000000
  2.275000  0.043300  0.000000
  2.087500  0.269950  0.000000
  2.350000  0.000000  0.000000
  2.200000  0.086600  0.000000
  2.050000  0.410000  0.000000
  2.300000  0.000000  0.000000
  2.050000  0.323400  0.000000
  2.225000  0.043300  0.000000
  2.100000  0.173210  0.000000
  2.125000  0.129900  0.000000
  2.062500  0.226650  0.000000
  2.150000  0.086600  0.000000
  2.025000  0.366700  0.000000
  2.250000  0.000000  0.000000
  2.175000  0.043300  0.000000
  2.025000  0.280100  0.000000
  2.000000  0.410000  0.000000
  2.000000  0.323400  0.000000
  2.200000  0.000000  0.000000
  2.070830  0.133290  0.000000
  2.100000  0.086600  0.000000
  2.037500  0.183350  0.000000
  2.125000  0.043300  0.000000
  1.975000  0.366700  0.000000
  2.000000  0.236790  0.000000
  2.150000  0.000000  0.000000
  1.975000  0.280100  0.000000
  1.950000  0.410000  0.000000
  2.050000  0.086600  0.000000
  1.950000  0.323400  0.000000
  2.012500  0.140050  0.000000
  2.075000  0.043300  0.000000
  1.975000  0.193490  0.000000
  2.100000  0.000000  0.000000
  1.925000  0.366700  0.000000
  1.950000  0.236790  0.000000
  1.925000  0.280100  0.000000
  2.000000  0.086600  0.000000
  1.900000  0.410000  0.000000
  2.025000  0.043300  0.000000
  1.900000  0.323400  0.000000
  1.950000  0.150190  0.000000
  2.050000  0.000000  0.000000
  1.925000  0.193490  0.000000
  1.900000  0.236790  0.000000
  1.875000  0.366700  0.000000
  1.875000  0.280100  0.000000
  1.975000  0.043300  0.000000
  1.937500  0.096750  0.000000
  2.000000  0.000000  0.000000
  1.850000  0.410000  0.000000
  1.902380  0.145780  0.000000
  1.850000  0.323400  0.000000
  1.875000  0.193490  0.000000
  1.850000  0.236790  0.000000
  1.820830  0.365370  0.000000
  1.925000  0.043300  0.000000
  1.950000  0.000000  0.000000
  1.800000  0.410000  0.000000
  1.850000  0.150190  0.000000
  1.877180  0.088810  0.000000
  1.810710  0.280600  0.000000
  1.800000  0.323400  0.000000
  1.820830  0.195410  0.000000
  1.800000  0.236790  0.000000
  1.900000  0.000000  0.000000
  1.875360  0.035430  0.000000
  1.825000  0.106890  0.000000
  1.800000  0.150190  0.000000
  1.750000  0.410000  0.000000
  1.750000  0.358750  0.000000
  1.750000  0.307500  0.000000
  1.750000  0.256250  0.000000
  1.825000  0.043300  0.000000
  1.850000  0.000000  0.000000
  1.750000  0.205000  0.000000
  1.793300  0.076870  0.000000
  1.750000  0.153750  0.000000
  1.700640  0.410000  0.000000
  1.704300  0.327190  0.000000
  1.750000  0.102500  0.000000
  1.800000  0.000000  0.000000
  1.706240  0.242410  0.000000
  1.676060  0.366700  0.000000
  1.679550  0.284150  0.000000
  1.704500  0.168810  0.000000
  1.750000  0.051250  0.000000
  1.682040  0.198780  0.000000
  1.655740  0.327710  0.000000
  1.651490  0.410000  0.000000
  1.750000  0.000000  0.000000
  1.656690  0.241750  0.000000
  1.703750  0.082910  0.000000
  1.678980  0.125940  0.000000
  1.627030  0.366700  0.000000
  1.631170  0.284620  0.000000
  1.654610  0.169080  0.000000
  1.632070  0.198270  0.000000
  1.607330  0.328120  0.000000
  1.602560  0.410000  0.000000
  1.700280  0.000000  0.000000
  1.675600  0.043300  0.000000
  1.655160  0.082380  0.000000
  1.606810  0.241470  0.000000
  1.630810  0.125620  0.000000
  1.578220  0.366700  0.000000
  1.582990  0.284920  0.000000
  1.604730  0.168150  0.000000
  1.578920  0.210800  0.000000
  1.650920  0.000000  0.000000
  1.559000  0.328320  0.000000
  1.553870  0.410000  0.000000
  1.626430  0.043300  0.000000
  1.606660  0.082260  0.000000
  1.556930  0.242380  0.000000
  1.582820  0.125810  0.000000
  1.529630  0.366700  0.000000
  1.534940  0.284960  0.000000
  1.555320  0.166880  0.000000
  1.601940  0.000000  0.000000
  1.530950  0.199810  0.000000
  1.577650  0.043300  0.000000
  1.510670  0.328200  0.000000
  1.505400  0.410000  0.000000
  1.558080  0.082770  0.000000
  1.534730  0.126670  0.000000
  1.507460  0.243800  0.000000
  1.481280  0.366700  0.000000
  1.486910  0.284640  0.000000
  1.506480  0.166500  0.000000
  1.553350  0.000000  0.000000
  1.529250  0.043300  0.000000
  1.482130  0.200990  0.000000
  1.462240  0.327690  0.000000
  1.457160  0.410000  0.000000
  1.509220  0.083990  0.000000
  1.486020  0.128110  0.000000
  1.458500  0.244760  0.000000
  1.433170  0.366700  0.000000
  1.438620  0.283990  0.000000
  1.458930  0.158770  0.000000
  1.505150  0.000000  0.000000
  1.481250  0.043300  0.000000
  1.434180  0.201480  0.000000
  1.459870  0.085670  0.000000
  1.413590  0.326890  0.000000
  1.409170  0.410000  0.000000
  1.409940  0.244800  0.000000
  1.385300  0.366700  0.000000
  1.389560  0.283370  0.000000
  1.409090  0.158420  0.000000
  1.457350  0.000000  0.000000
  1.433650  0.043300  0.000000
  1.386550  0.201040  0.000000
  1.410050  0.086600  0.000000
  1.364750  0.326450  0.000000
  1.361420  0.410000  0.000000
  1.361460  0.243860  0.000000
  1.337670  0.366700  0.000000
  1.409950  0.000000  0.000000
  1.338650  0.284240  0.000000
  1.386460  0.043300  0.000000
  1.354150  0.119670  0.000000
  1.313920  0.410000  0.000000
  1.316290  0.328550  0.000000
  1.332940  0.164270  0.000000
  1.312360  0.242750  0.000000
  1.362970  0.000000  0.000000
  1.290300  0.366700  0.000000
  1.295390  0.283330  0.000000
  1.339680  0.043300  0.000000
  1.325730  0.078680  0.000000
  1.304410  0.123360  0.000000
  1.266670  0.410000  0.000000
  1.266740  0.323400  0.000000
  1.272670  0.239000  0.000000
  1.283210  0.168120  0.000000
  1.316400  0.000000  0.000000
  1.243180  0.366700  0.000000
  1.246180  0.281190  0.000000
  1.293330  0.043300  0.000000
  1.277840  0.081590  0.000000
  1.256410  0.126460  0.000000
  1.219690  0.410000  0.000000
  1.219750  0.323400  0.000000
  1.233390  0.170720  0.000000
  1.222230  0.237350  0.000000
  1.270260  0.000000  0.000000
  1.196320  0.366700  0.000000
  1.247400  0.043300  0.000000
  1.196390  0.280100  0.000000
  1.229040  0.084940  0.000000
  1.205650  0.129050  0.000000
  1.189490  0.207370  0.000000
  1.172960  0.410000  0.000000
  1.173020  0.323400  0.000000
  1.224540  0.000000  0.000000
  1.181510  0.158020  0.000000
  1.201900  0.043300  0.000000
  1.149720  0.366700  0.000000
  1.179360  0.086600  0.000000
  1.143430  0.291070  0.000000
  1.144660  0.247780  0.000000
  1.126490  0.410000  0.000000
  1.142770  0.189580  0.000000
  1.179250  0.000000  0.000000
  1.134770  0.140320  0.000000
  1.156830  0.043300  0.000000
  1.103400  0.366700  0.000000
  1.100860  0.316520  0.000000
  1.099450  0.268150  0.000000
  1.103580  0.220000  0.000000
  1.080300  0.410000  0.000000
  1.096330  0.172140  0.000000
  1.134410  0.000000  0.000000
  1.100760  0.105310  0.000000
  1.058360  0.324420  0.000000
  1.099400  0.056460  0.000000
  1.059350  0.282410  0.000000
  1.062400  0.233330  0.000000
  1.051490  0.361960  0.000000
  1.062400  0.206670  0.000000
  1.062400  0.140000  0.000000
  1.034380  0.410000  0.000000
  1.090000  0.000000  0.000000
  1.032380  0.305960  0.000000
  1.027830  0.333570  0.000000
  1.033760  0.246670  0.000000
  1.028220  0.281830  0.000000
  1.059860  0.078570  0.000000
  1.030770  0.220170  0.000000
  1.033760  0.193330  0.000000
  1.015410  0.368300  0.000000
  1.056850  0.040910  0.000000
  1.013850  0.293330  0.000000
  1.011380  0.313820  0.000000
  1.013850  0.280000  0.000000
  1.013850  0.266670  0.000000
  1.013850  0.240000  0.000000
  1.012290  0.252000  0.000000
  1.025480  0.152840  0.000000
  1.013850  0.226670  0.000000
  1.028350  0.124560  0.000000
  1.002130  0.333160  0.000000
  1.012290  0.214670  0.000000
  1.013850  0.200000  0.000000
  1.032380  0.094040  0.000000
  1.000000  0.300000  0.000000
  1.012290  0.188000  0.000000
  1.013850  0.173330  0.000000
[...]
POINT_DATA 2042
SCALARS pressure double
LOOKUP_TABLE default
  -0.490974
  -6.572218
  -0.290284
  -4.783240
  -7.812155
  0.142126
  -6.734441
  -4.768641
  -10.081783
  -9.041680
  0.033264
  -2.675565
  -7.688115
  -5.865452
  -11.661439
  -0.020903
  -9.678916
  -4.247551
  -11.216290
  -8.434868
  -7.163918
  -2.866983
  -11.722384
  -11.820941
  -10.695450
  0.232718
  -5.920022
  -12.448082
  -9.606160
  -8.482646
  -4.642271
  -13.109028
  -14.226358
  -11.996780
  -15.318063
  -15.505470
  -7.431893
  -0.085993
  -10.873996
  -4.438612
  -9.872664
  -15.443900
  -14.210391
  -6.838700
  -13.174160
  -17.239711
  -19.231581
  -9.089169
  -0.254844
  -12.173122
  -19.548768
  -7.045890
  -16.653476
  -11.285317
  -17.974593
  -15.402503
  -8.682727
  -14.437981
  -19.836668
  -20.639949
  -10.507853
  -13.456128
  -1.853627
  -6.620612
  -18.791178
  -8.297851
  -17.737562
  -21.356799
  -16.627520
  -12.568290
  -20.660909
  -9.800748
  -15.529491
  -22.278045
  -11.664661
  -22.252875
  -14.651535
  -19.870688
  -18.699288
  -21.597002
  -17.702229
  -23.178613
  -13.709559
  -16.694425
  -23.242177
  -24.173141
  -24.338876
  -15.714799
  -21.042880
  -19.731764
  -22.530652
  -18.649160
  -25.412030
  -24.291667
  -17.679885
  -25.473834
  -26.567261
  -21.694797
  -26.480327
  -23.593285
  -20.744947
  -25.323723
  -19.547233
  -27.778099
  -26.452882
  -27.652405
  -23.957531
  -28.785225
  -22.967694
  -28.691862
  -26.293094
  -21.846654
  -27.617189
  -28.710517
  -29.680478
  -29.803022
  -24.523110
  -26.309547
  -23.824501
  -30.379385
  -28.540183
  -30.614306
  -30.011447
  -30.960847
  -31.769025
  -26.355093
  -25.204911
  -32.978839
  -31.017423
  -28.821268
  -32.628454
  -32.760506
  -32.622372
  -33.617189
  -27.242557
  -28.992144
  -31.864461
  -33.576229
  -36.017373
  -36.076433
  -35.881641
  -36.118867
  -31.734638
  -30.792715
  -35.990799
  -33.667037
  -35.962234
  -38.808565
  -38.656949
  -36.293733
  -33.463794
  -37.963441
  -40.073995
  -39.200540
  -38.326137
  -36.621866
  -39.313501
  -40.790577
  -40.964119
  -36.573211
  -40.408472
  -39.288502
  -39.795253
  -41.954514
  -41.686174
  -40.830764
  -41.716464
  -42.823837
  -43.001770
  -39.401660
  -40.687874
  -41.335107
  -42.770395
  -42.203634
  -44.044675
  -43.835078
  -43.040609
  -44.116121
  -41.512378
  -44.936921
  -45.114177
  -42.475559
  -43.225155
  -45.085537
  -44.110933
  -46.238965
  -46.030866
  -45.213348
  -43.439992
  -46.290406
  -44.397944
  -47.087980
  -47.344750
  -45.204631
  -46.134701
  -47.247576
  -48.375567
  -48.159051
  -47.359429
  -45.381815
  -46.392530
  -48.364954
  -49.222137
  -49.396967
  -47.224121
  -48.323808
  -49.427220
  -50.451493
  -50.297099
  -49.483546
  -47.375477
  -48.474058
  -50.325291
  -49.428447
  -51.315556
  -51.453917
  -51.521497
  -52.563143
  -52.450901
  -51.308069
  -49.436795
  -50.263942
  -52.556929
  -51.128140
  -53.546323
  -53.635809
  -53.839587
  -54.653643
  -51.264436
  -54.732155
  -52.293987
  -53.889930
  -55.584872
  -55.580869
  -55.012669
  -55.881861
  -53.498178
  -56.720295
  -56.756058
  -54.537829
  -55.148684
  -56.353295
  -57.786090
  -57.803007
  -57.854658
  -57.317862
  -55.472022
  -58.873038
  -58.875820
  -56.469264
  -57.129652
  -58.331464
  -59.655176
  -59.960900
  -59.671438
  -60.306541
  -57.308647
  -60.617138
  -58.222474
  -61.313320
  -59.108685
  -60.556201
  -61.990887
  -61.211753
  -62.255580
  -58.684304
  -61.972377
  -60.015782
  -62.685476
  -61.330539
  -63.967729
  -63.953034
  -63.982087
  -64.207161
  -60.567512
  -64.524707
  -61.973298
  -65.478251
  -65.634518
  -66.492907
  -66.467660
  -66.930771
  -66.590429
  -62.708525
  -65.561034
  -68.448292
  -65.076395
  -68.476906
  -68.756114
  -68.266968
  -68.593081
  -68.224564
  -68.518436
  -64.098474
  -70.834992
  -70.866754
  -70.164033
  -70.918924
  -68.020744
  -70.575428
  -70.417539
  -71.445368
  -68.520076
  -71.980140
  -72.211173
  -71.923359
  -71.843799
  -71.824346
  -71.914106
  -70.904159
  -71.842585
  -70.837713
  -72.974836
  -71.938611
  -71.744571
  -70.467641
  -73.018390
  -71.829394
  -71.734703
  -72.881481
  -72.853088
  -72.824547
  -71.891396
  -72.816176
  -71.073158
  -71.747718
  -73.542638
  -72.800504
  -68.498293
  -72.683972
  -71.639450
  -72.785834
  -73.305207
  -72.765301
  -71.682147
  -72.754919
  -71.752770
  -73.803512
  -72.758323
  -73.672043
  -72.752418
  -72.735292
  -73.719210
  -71.766529
  -74.113576
  -72.684776
  -74.185361
  -73.606639
  -74.041943
  -74.198250
  -72.625388
  -74.102738
  -73.766263
  -72.633727
  -73.567701
  -74.563038
  -72.394078
  -74.207094
  -74.559922
  -74.483350
  -74.684605
  -73.507678
  -73.890209
  -74.194235
  -75.020200
  -74.506669
  -75.371276
  -74.904076
  -73.304670
  -73.597435
  -75.102527
  -74.022541
  -74.883633
  -72.636297
  -74.452311
  -74.768240
  -75.383388
  -75.034763
  -73.259079
  -75.469883
  -75.375215
  -74.291208
  -75.672441
  -74.792543
  -75.921365
  -75.107139
  -73.996866
  -75.545651
  -75.390878
  -75.788387
  -72.695393
  -73.327434
  -76.023727
  -72.172818
  -74.978798
  -76.676994
  -75.342486
  -74.658026
  -75.656700
  -76.507153
  -77.178355
  -75.948195
  -76.141011
  -74.102489
  -76.375441
  -75.186641
  -76.682857
  -75.644950
  -75.925999
  -77.026969
  -74.908009
  -76.447984
  -76.303467
  -76.692635
  -76.922469
  -77.487988
  -74.280548
  -75.880240
  -76.255646
  -75.600521
  -76.556364
  -77.322322
  -76.816787
  -77.049122
  -75.138364
  -77.271448
  -73.281228
  -77.536066
  -76.555493
  -76.838397
  -76.243036
  -75.863720
  -77.362639
  -77.199590
  -77.748177
  -77.576721
  -77.807075
  -75.153617
  -76.866607
  -77.191261
  -77.904163
  -77.458960
  -76.558597
  -78.180334
  -77.734000
  -75.981675
  -77.951297
  -78.122257
  -75.246437
  -78.364150
  -77.505866
  -77.207982
  -77.808588
  -78.505545
  -78.041116
  -76.838237
  -78.249318
  -78.482799
  -78.284731
  -78.691853
  -76.395662
  -78.942444
  -77.837350
  -78.124622
  -78.385552
  -73.750006
  -77.569208
  -78.790024
  -79.049198
  -78.646875
  -77.317955
  -79.060343
  -79.289996
  -78.448531
  -78.710323
  -78.191324
  -78.945376
  -79.621081
  -77.932908
  -79.162625
  -80.013366
  -79.385236
  -79.602642
  -78.070409
  -79.884833
  -78.800729
  -79.071851
  -79.310126
  -79.504136
  -78.577381
  -79.698348
  -80.072989
  -78.382316
  -77.414497
  -79.892113
  -78.787036
  -80.200816
  -80.161320
  -79.399498
  -79.640755
  -79.169508
  -79.876081
  -80.524873
  -80.208167
  -80.081876
  -78.698293
  -78.924990
  -80.501647
  -80.642185
  -80.003084
  -79.774216
  -80.417093
  -80.246511
  -80.618077
  -79.576026
  -80.903880
  -79.496141
  -80.796167
  -81.048928
  -80.348748
  -80.578834
  -80.148799
  -80.789626
  -81.119702
  -81.003256
  -81.334393
  -81.242641
  -81.387772
  -79.965475
  -80.700760
  -81.646121
  -80.955017
  -81.174797
  -80.530948
  -81.346866
  -81.542650
  -80.389256
  -81.861943
  -81.700626
  -78.807347
  -81.982438
  -81.304908
  -81.091669
  -81.510862
  -81.723522
  -81.895895
  -82.024731
  -82.081180
  -82.339830
  -82.390245
  -82.313329
  -80.955905
  -81.656870
  -81.861620
  -82.322332
  -82.108942
  -81.515909
  -82.279643
  -82.159187
  -82.465066
  -81.473892
  -82.657893
  -82.619287
  -82.901792
  -82.057710
  -82.686514
  -82.262206
  -81.771405
  -82.446783
  -82.656792
  -82.820752
  -83.022437
  -83.186678
  -82.018282
  -82.089313
  -83.280969
  -83.229519
  -82.609693
  -82.803607
  -83.006354
  -82.548440
  -83.195889
  -84.296299
  -83.393349
  -82.577508
  -83.615778
  -83.566889
  -83.592847
  -83.066955
  -83.214720
  -83.388185
  -83.582663
  -83.747465
  -83.983002
  -83.942644
  -84.126577
  -84.195437
  -83.312032
  -83.565967
  -83.742923
  -83.931698
  -83.540585
  -84.125311
  -83.541451
  -84.316694
  -84.574179
  -84.573397
  -84.766074
  -84.523661
  -83.244934
  -84.128527
  -83.967102
  -84.291192
  -84.477842
  -85.525854
  -84.669304
  -85.492566
  -83.738346
  -84.870961
  -84.028318
  -85.058047
  -85.237906
  -84.675916
  -84.516174
  -84.859875
  -85.046246
  -85.446003
  -84.387319
  -85.243141
  -85.796869
  -85.447805
  -85.709411
  -84.688832
  -85.059689
  -85.218552
  -85.396023
  -85.591931
  -85.435032
  -86.356594
  -85.784928
  -85.986530
  -86.203814
  -85.066403
  -86.103939
  -85.750248
  -85.607958
  -85.468858
  -84.267948
  -86.457371
  -85.971421
  -86.386261
  -85.421505
  -86.160593
  -86.607790
  -86.380152
  -85.815618
  -86.117777
  -85.989532
  -86.313440
  -86.504486
  -85.434278
  -86.709291
  -85.770334
  -87.191623
  -86.969741
  -87.102960
  -86.497272
  -86.352083
  -86.682654
  -87.357844
  -86.858198
  -87.116281
  -86.243349
  -87.080364
  -87.540702
  -87.295852
  -87.447368
  -86.856842
  -87.036382
  -86.773128
  -87.230905
  -87.876082
  -85.720910
  -87.418988
  -87.607803
  -87.836315
  -86.800168
  -87.138963
  -88.001019
  -87.410054
  -87.280627
  -88.220687
  -87.593044
  -87.239064
  -87.765394
  -87.279259
  -87.980703
  -88.398307
  -88.212298
  -88.389032
  -88.577029
  -87.775373
  -87.934906
  -87.726793
  -88.138596
  -88.315444
  -87.865047
  -88.894992
  -88.526593
  -87.845747
  -88.759413
  -88.947302
  -89.171383
  -88.458920
  -88.311293
  -88.181293
  -88.672710
  -89.130820
  -88.186804
  -88.894238
  -88.880899
  -89.099267
  -89.517682
  -89.321010
  -89.534354
  -88.651564
  -88.833672
  -88.990139
  -88.592652
  -89.738543
  -89.250354
  -89.428051
  -89.680597
  -88.553832
  -89.869154
  -89.162428
  -89.032769
  -90.105856
  -89.357422
  -90.798908
  -88.861097
  -89.570448
  -88.991777
  -89.801831
  -90.006030
  -90.408761
  -90.241524
  -89.285971
  -90.461080
  -89.520996
  -89.689744
  -89.888907
  -88.877626
  -90.116537
  -90.318975
  -91.014425
  -90.549127
  -89.504494
  -89.139343
  -90.782864
  -91.018399
  -90.048983
  -90.226943
  -89.969609
  -90.459793
  -89.894117
  -91.907256
  -90.700347
  -90.863479
  -91.474374
  -91.153439
  -91.403160
  -90.415254
  -90.577982
  -90.781488
  -91.012455
  -92.101852
  -91.223319
  -91.455442
  -91.708559
  -90.627378
  -91.989556
  -90.932884
  -90.788277
  -91.114919
  -89.650475
  -91.347671
  -91.518428
  -90.757375
  -92.510806
  -91.813382
  -92.372868
  -92.020156
  -92.298631
  -91.273264
  -91.460820
  -91.658369
  -90.796695
  -91.893555
  -92.115739
  -92.516956
  -92.815774
  -92.357260
  -91.269020
  -92.611617
  -91.799596
  -91.633397
  -92.000351
  -92.228294
  -92.982712
  -92.416575
  -91.560578
  -93.012762
  -92.654951
  -93.248521
  -92.908786
  -92.161665
  -92.338022
  -92.545216
  -93.287350
  -92.748367
  -93.385911
  -92.999791
  -93.251659
  -91.991512
  -93.516506
  -93.713013
  -92.670024
  -92.456924
  -92.882209
  -93.095737
  -91.335423
  -93.306121
  -92.439812
  -93.549029
  -94.533031
  -93.957381
  -93.816024
  -94.035401
  -94.117814
  -92.969624
  -93.211744
  -93.430616
  -93.637924
  -93.885121
  -94.452592
  -94.614533
  -94.137887
  -92.695552
  -92.054923
  -94.412798
  -94.626582
  -93.530046
  -93.263322
  -93.763627
  -93.982192
  -93.194371
  -94.185989
  -95.576064
  -94.431142
  -94.688562
  -95.183531
  -92.979205
  -95.033855
  -93.805230
  -94.091034
  -94.316240
  -94.500979
  -95.351088
  -93.264838
  -94.773438
  -95.799164
  -95.026914
  -95.308942
  -95.545961
  -94.404817
  -94.650294
  -94.866868
  -94.007570
  -95.057035
  -96.683661
  -95.320861
  -95.595330
  -97.701046
  -96.012633
  -95.801582
  -94.978308
  -94.680248
  -95.207186
  -95.374657
  -96.155272
  -95.665573
  -95.905907
  -94.448404
  -96.167457
  -96.414198
  -95.645480
  -96.422059
  -95.315454
  -95.544770
  -95.094786
  -95.918165
  -94.688738
  -96.199077
  -96.553790
  -96.505783
  -96.797477
  -96.720413
  -93.319594
  -96.918945
  -95.659406
  -95.880625
  -96.216635
  -96.123347
  -96.514495
  -96.800224
  -95.847172
  -97.074190
  -97.129189
  -97.304913
  -96.210674
  -96.448431
  -96.020600
  -96.678848
  -96.056738
  -96.762522
  -97.060541
  -97.435981
  -97.624907
  -97.642795
  -97.839432
  -96.545964
  -96.774364
  -97.176571
  -97.030215
  -97.297565
  -97.744527
  -96.600660
  -98.049245
  -98.068140
  -98.225874
  -97.093311
  -97.355441
  -96.828426
  -97.622123
  -98.392148
  -98.349248
  -98.034805
  -98.462065
  -98.645279
  -98.599842
  -98.681045
  -98.050103
  -98.589720
  -97.380418
  -97.666817
  -97.964428
  -98.307065
  -98.933133
  -99.029779
  -97.301342
  -99.657123
  -98.510459
  -99.115282
  -96.731439
  -98.465855
  -99.151373
  -99.249276
  -97.951949
  -98.268444
  -97.666123
  -99.211678
  -99.567933
  -99.591031
  -99.658660
  -99.698546
  -97.292636
  -98.222397
  -99.599867
  -98.545990
  -98.910709
  -97.912936
  -96.718011
  -99.612299
  -100.205620
  -99.952046
  -99.477614
  -100.166973
  -98.795368
  -99.175779
  -98.484889
  -100.674371
  -100.705300
  -100.572533
  -98.931747
  -101.100145
  -100.508379
  -100.679344
  -100.938704
  -99.428222
  -99.845357
  -100.623121
  -100.769990
  -99.009187
  -100.862764
  -100.963866
  -101.456529
  -97.949664
  -102.157651
  -102.012458
  -99.695897
  -99.551666
  -100.061495
  -100.619382
  -102.170847
  -101.634116
  -102.182744
  -101.652983
  -101.908824
  -100.974046
  -101.469937
  -101.532931
  -101.361097
  -100.282932
  -101.570249
  -100.715374
  -102.528988
  -102.557129
  -101.491047
  -102.482446
  -99.844978
  -101.996400
  -102.404402
  -99.644610
  -102.371218
  -101.742841
  -102.194255
  -100.261925
  -100.875352
  -101.394348
  -102.483860
  -100.658076
  -102.346796
  -102.204085
  -102.180939
  -102.474449
  -102.149499
  -102.576481
  -101.670872
  -102.066695
  -101.090697
  -102.382148
  -101.566353
  -102.423630
  -100.693362
  -102.680102
  -102.558177
  -102.525304
  -100.911405
  -102.531940
  -102.897153
  -99.781731
  -102.720860
  -101.241223
  -101.657600
  -102.126871
  -102.875016
  -102.828671
  -102.698015
  -102.726860
  -103.025878
  -102.983184
  -101.635821
  -102.664884
  -102.868514
  -103.287081
  -103.250084
  -103.157521
  -102.300166
  -101.858426
  -103.274258
  -103.293913
  -102.072894
  -102.996096
  -103.421248
  -102.095099
  -103.472897
  -103.627901
  -102.016897
  -103.130062
  -102.786197
  -103.610834
  -104.318975
  -102.534645
  -103.751887
  -103.865631
  -103.325323
  -102.378865
  -103.974063
  -103.288938
  -103.900829
  -103.508518
  -104.031695
  -102.991754
  -102.397240
  -104.091068
  -102.797777
  -104.367003
  -103.652835
  -104.208615
  -104.209381
  -102.638014
  -103.470229
  -103.789157
  -104.347678
  -103.237506
  -104.762441
  -104.415552
  -104.569800
  -103.069321
  -104.554998
  -104.655255
  -104.037400
  -104.511884
  -104.641739
  -103.687996
  -103.102846
  -104.894728
  -104.176691
  -104.709563
  -103.008067
  -104.802883
  -103.494933
  -104.177110
  -104.908791
  -103.321713
  -105.745342
  -104.084789
  -104.372034
  -104.922187
  -105.691226
  -105.060764
  -103.927231
  -104.563553
  -105.225251
  -103.376031
  -103.758796
  -105.125685
  -105.224124
  -103.171871
  -105.330662
  -104.329998
  -103.539755
  -104.720145
  -105.369314
  -105.285401
  -105.487568
  -104.184199
  -105.515199
  -104.863927
  -105.555312
  -105.485424
  -103.974792
  -104.722079
  -105.765908
  -104.600322
  -105.766637
  -105.108148
  -105.748964
  -105.865957
  -104.462528
  -105.241112
  -105.175340
  -106.015727
  -105.919079
  -106.017342
  -105.017428
  -104.312038
  -105.964370
  -106.083377
  -105.421933
  -106.189920
  -104.906342
  -106.098027
  -104.316192
  -104.825270
  -105.671366
  -106.278736
  -105.417821
  -106.449486
  -105.300935
  -106.455062
  -105.205906
  -105.835369
  -106.556860
  -106.621318
  -106.752130
  -105.998706
  -106.730486
  -105.705408
  -106.702075
  -105.130322
  -106.891008
  -105.584181
  -106.009255
  -106.708193
  -106.155781
  -105.041972
  -105.498832
  -106.856769
  -106.122440
  -107.113803
  -107.175140
  -106.418886
  -105.994345
  -107.053752
  -106.809556
  -105.870256
  -107.331862
  -107.321972
  -107.273637
  -106.585115
  -107.392060
  -107.183760
  -106.400242
  -105.846107
  -108.901103
  -107.474362
  -106.747599
  -107.370282
  -107.616196
  -106.238470
  -106.291298
  -106.768734
  -106.236950
  -107.797699
  -106.919827
  -106.752527
  -107.601783
  -107.869189
  -106.692153
  -107.167617
  -106.609559
  -108.061309
  -108.023121
  -107.829900
  -108.092566
  -107.056135
  -106.670656
  -107.351018
  -108.012284
  -108.346892
  -106.991756
  -108.306428
  -107.501812
  -106.961358
  -108.541787
  -108.288185
  -107.404462
  -108.408328
  -108.611838
  -107.383545
  -107.050983
  -107.712040
  -107.682566
  -108.516132
  -107.299005
  -108.825925
  -108.870985
  -107.921317
  -108.676295
  -107.210722
  -108.849953
  -107.413799
  -107.750644
  -109.103768
  -107.697836
  -108.121339
  -109.216264
  -110.086350
  -108.988235
  -109.295813
  -107.641320
  -108.090150
  -109.437323
  -108.307296
  -109.145704
  -109.322373
  -108.084358
  -108.001709
  -109.367521
  -108.488155
  -109.609790
  -109.658351
  -108.456661
  -109.310364
  -108.753830
  -108.077326
  -108.450608
  -109.538378
  -109.836768
  -108.388513
  -110.019501
  -110.066158
  -108.447318
  -108.924985
  -108.785187
  -109.741309
  -108.632102
  -109.103097
  -108.774350
  -108.012218
  -110.042808
  -111.583307
  -109.125980
  -110.369670
  -110.584331
  -110.265730
  -110.195134
  -109.303040
  -110.687063
  -110.235044
  -109.138106
  -109.019090
  -110.660604
  -109.442667
  -110.496498
  -109.155416
  -111.085057
  -109.173260
  -110.916085
  -109.520390
  -109.732201
  -110.800945
  -109.507331
  -111.448794
  -110.932331
  -111.147292
  -109.917762
  -109.315847
  -110.931839
  -111.430808
  -109.855752
  -111.509352
  -111.278522
  -109.756962
  -109.846180
  -110.174739
  -111.134769
  -111.846283
  -109.835605
  -110.444472
  -109.881627
  -111.697021
  -111.359446
  -110.159568
  -111.617327
  -110.170485
  -110.516694
  -111.473283
  -111.932278
  -111.766737
  -112.281915
  -110.518979
  -110.627314
  -111.712253
  -112.275889
  -110.522319
  -110.457613
  -112.094597
  -109.461425
  -110.496832
  -110.842064
  -112.736225
  -111.932521
  -110.517681
  -112.475916
  -110.938646
  -110.945263
  -112.523202
  -112.164396
  -112.362626
  -110.834995
  -112.680158
  -110.464829
  -111.149808
  -112.999022
  -111.257952
  -112.357441
  -110.770243
  -112.524957
  -113.013278
  -111.336370
  -111.212863
  -112.610015
  -109.594412
  -112.883320
  -111.116763
  -113.579440
  -111.067345
  -113.225775
  -111.578516
  -112.883617
  -112.908176
  -111.551033
  -113.854493
  -113.011154
  -111.780103
  -111.485402
  -113.409843
  -113.885646
  -113.278249
  -111.951415
  -112.045765
  -113.842498
  -111.269164
  -113.243862
  -111.860701
  -112.006492
  -114.318495
  -112.324142
  -113.411033
  -111.794472
  -113.643508
  -111.756084
  -113.960062
  -112.435511
  -112.257081
  -114.398111
  -113.663948
  -112.197090
  -114.117859
  -112.632917
  -114.711082
  -113.831452
  -112.670877
  -110.716162
  -114.524597
  -112.651704
  -112.573715
  -114.055707
  -111.867673
  -112.835718
  -114.249343
  -113.977895
  -115.269553
  -113.003748
  -112.380998
  -114.675824
  -114.180141
  -112.925053
  -112.750767
  -115.152844
  -113.277543
  -111.677904
  -114.802433
  -114.324520
  -113.007754
  -115.549862
  -113.425612
  -113.222026
  -115.272013
  -113.433360
  -113.357910
  -112.385570
  -114.595288
  -114.901995
  -114.855323
  -113.620462
  -116.022777
  -114.722079
  -113.100676
  -115.381448
  -113.782049
  -113.486906
  -113.693272
  -114.943046
  -115.883859
  -111.343075
  -116.393169
  -115.480544
  -116.343316
  -113.994950
  -114.042349
  -113.912476
  -115.117207
  -115.985343
  -113.391862
  -114.171831
  -116.751645
  -115.598500
  -114.254621
  -115.382316
  -116.726615
  -114.280348
  -114.015755
  -114.393957
  -116.076160