# vtk DataFile Version 2.0
FSI_Simulation
ASCII

DATASET UNSTRUCTURED_GRID
POINTS 2042 double
  2.500000  0.410000  0.000000
  2.450000  0.410000  0.000000
  2.500000  0.358750  0.000000
  2.455000  0.345150  0.000000
  2.400000  0.410000  0.000000
  2.500000  0.307500  0.000000
  2.409170  0.352960  0.000000
  2.425000  0.303110  0.000000
  2.350000  0.410000  0.000000
  2.359860  0.354270  0.000000
  2.500000  0.256250  0.000000
  2.450000  0.259810  0.000000
  2.375000  0.303110  0.000000
  2.400000  0.259810  0.000000
  2.300000  0.410000  0.000000
  2.500000  0.205000  0.000000
  2.325000  0.303110  0.000000
  2.425000  0.216510  0.000000
  2.300000  0.346410  0.000000
  2.350000  0.259810  0.000000
  2.375000  0.216510  0.000000
  2.450000  0.173210  0.000000
  2.275000  0.303110  0.000000
  2.250000  0.410000  0.000000
  2.300000  0.259810  0.000000
  2.500000  0.153750  0.000000
  2.400000  0.173210  0.000000
  2.250000  0.346410  0.000000
  2.325000  0.216510  0.000000
  2.350000  0.173210  0.000000
  2.429170  0.133880  0.000000
  2.250000  0.259810  0.000000
  2.225000  0.303110  0.000000
  2.275000  0.216510  0.000000
  2.200000  0.410000  0.000000
  2.197270  0.363510  0.000000
  2.375000  0.129900  0.000000
  2.500000  0.102500  0.000000
  2.300000  0.173210  0.000000
  2.450000  0.086600  0.000000
  2.325000  0.129900  0.000000
  2.200000  0.259810  0.000000
  2.225000  0.216510  0.000000
  2.400000  0.086600  0.000000
  2.250000  0.173210  0.000000
  2.170490  0.306770  0.000000
  2.150000  0.410000  0.000000
  2.350000  0.086600  0.000000
  2.500000  0.051250  0.000000
  2.275000  0.129900  0.000000
  2.135420  0.358250  0.000000
  2.429170  0.044630  0.000000
  2.175000  0.216510  0.000000
  2.300000  0.086600  0.000000
  2.150000  0.259810  0.000000
  2.200000  0.173210  0.000000
  2.375000  0.043300  0.000000
  2.225000  0.129900  0.000000
  2.112500  0.313250  0.000000
  2.100000  0.410000  0.000000
  2.325000  0.043300  0.000000
  2.250000  0.086600  0.000000
  2.500000  0.000000  0.000000
  2.450000  0.000000  0.000000
  2.125000  0.216510  0.000000
  2.400000  0.000000  0.000000
  2.150000  0.173210  0.000000
  2.075000  0.366700  0.000000
  2.175000  0.129900  0.000000
  2.275000  0.043300  0.000000
  2.087500  0.269950  0.000000
  2.350000  0.000000  0.000000
  2.200000  0.086600  0.000000
  2.050000  0.410000  0.000000
  2.300000  0.000000  0.000000
  2.050000  0.323400  0.000000
  2.225000  0.043300  0.000000
  2.100000  0.173210  0.000000
  2.125000  0.129900  0.000000
  2.062500  0.226650  0.000000
  2.150000  0.086600  0.000000
  2.025000  0.366700  0.000000
  2.250000  0.000000  0.000000
  2.175000  0.043300  0.000000
  2.025000  0.280100  0.000000
  2.000000  0.410000  0.000000
  2.000000  0.323400  0.000000
  2.200000  0.000000  0.000000
  2.070830  0.133290  0.000000
  2.100000  0.086600  0.000000
  2.037500  0.183350  0.000000
  2.125000  0.043300  0.000000
  1.975000  0.366700  0.000000
  2.000000  0.236790  0.000000
  2.150000  0.000000  0.000000
  1.975000  0.280100  0.000000
  1.950000  0.410000  0.000000
  2.050000  0.086600  0.000000
  1.950000  0.323400  0.000000
  2.012500  0.140050  0.000000
  2.075000  0.043300  0.000000
  1.975000  0.193490  0.000000
  2.100000  0.000000  0.000000
  1.925000  0.366700  0.000000
  1.950000  0.236790  0.000000
  1.925000  0.280100  0.000000
  2.000000  0.086600  0.000000
  1.900000  0.410000  0.000000
  2.025000  0.043300  0.000000
  1.900000  0.323400  0.000000
  1.950000  0.150190  0.000000
  2.050000  0.000000  0.000000
  1.925000  0.193490  0.000000
  1.900000  0.236790  0.000000
  1.875000  0.366700  0.000000
  1.875000  0.280100  0.000000
  1.975000  0.043300  0.000000
  1.937500  0.096750  0.000000
  2.000000  0.000000  0.000000
  1.850000  0.410000  0.000000
  1.902380  0.145780  0.000000
  1.850000  0.323400  0.000000
  1.875000  0.193490  0.000000
  1.850000  0.236790  0.000000
  1.820830  0.365370  0.000000
  1.925000  0.043300  0.000000
  1.950000  0.000000  0.000000
  1.800000  0.410000  0.000000
  1.850000  0.150190  0.000000
  1.877180  0.088810  0.000000
  1.810710  0.280600  0.000000
  1.800000  0.323400  0.000000
  1.820830  0.195410  0.000000
  1.800000  0.236790  0.000000
  1.900000  0.000000  0.000000
  1.875360  0.035430  0.000000
  1.825000  0.106890  0.000000
  1.800000  0.150190  0.000000
  1.750000  0.410000  0.000000
  1.750000  0.358750  0.000000
  1.750000  0.307500  0.000000
  1.750000  0.256250  0.000000
  1.825000  0.043300  0.000000
  1.850000  0.000000  0.000000
  1.750000  0.205000  0.000000
  1.793300  0.076870  0.000000
  1.750000  0.153750  0.000000
  1.700640  0.410000  0.000000
  1.704300  0.327190  0.000000
  1.750000  0.102500  0.000000
  1.800000  0.000000  0.000000
  1.706240  0.242410  0.000000
  1.676060  0.366700  0.000000
  1.679550  0.284150  0.000000
  1.704500  0.168810  0.000000
  1.750000  0.051250  0.000000
  1.682040  0.198780  0.000000
  1.655740  0.327710  0.000000
  1.651490  0.410000  0.000000
  1.750000  0.000000  0.000000
  1.656690  0.241750  0.000000
  1.703750  0.082910  0.000000
  1.678980  0.125940  0.000000
  1.627030  0.366700  0.000000
  1.631170  0.284620  0.000000
  1.654610  0.169080  0.000000
  1.632070  0.198270  0.000000
  1.607330  0.328120  0.000000
  1.602560  0.410000  0.000000
  1.700280  0.000000  0.000000
  1.675600  0.043300  0.000000
  1.655160  0.082380  0.000000
  1.606810  0.241470  0.000000
  1.630810  0.125620  0.000000
  1.578220  0.366700  0.000000
  1.582990  0.284920  0.000000
  1.604730  0.168150  0.000000
  1.578920  0.210800  0.000000
  1.650920  0.000000  0.000000
  1.559000  0.328320  0.000000
  1.553870  0.410000  0.000000
  1.626430  0.043300  0.000000
  1.606660  0.082260  0.000000
  1.556930  0.242380  0.000000
  1.582820  0.125810  0.000000
  1.529630  0.366700  0.000000
  1.534940  0.284960  0.000000
  1.555320  0.166880  0.000000
  1.601940  0.000000  0.000000
  1.530950  0.199810  0.000000
  1.577650  0.043300  0.000000
  1.510670  0.328200  0.000000
  1.505400  0.410000  0.000000
  1.558080  0.082770  0.000000
  1.534730  0.126670  0.000000
  1.507460  0.243800  0.000000
  1.481280  0.366700  0.000000
  1.486910  0.284640  0.000000
  1.506480  0.166500  0.000000
  1.553350  0.000000  0.000000
  1.529250  0.043300  0.000000
  1.482130  0.200990  0.000000
  1.462240  0.327690  0.000000
  1.457160  0.410000  0.000000
  1.509220  0.083990  0.000000
  1.486020  0.128110  0.000000
  1.458500  0.244760  0.000000
  1.433170  0.366700  0.000000
  1.438620  0.283990  0.000000
  1.458930  0.158770  0.000000
  1.505150  0.000000  0.000000
  1.481250  0.043300  0.000000
  1.434180  0.201480  0.000000
  1.459870  0.085670  0.000000
  1.413590  0.326890  0.000000
  1.409170  0.410000  0.000000
  1.409940  0.244800  0.000000
  1.385300  0.366700  0.000000
  1.389560  0.283370  0.000000
  1.409090  0.158420  0.000000
  1.457350  0.000000  0.000000
  1.433650  0.043300  0.000000
  1.386550  0.201040  0.000000
  1.410050  0.086600  0.000000
  1.364750  0.326450  0.000000
  1.361420  0.410000  0.000000
  1.361460  0.243860  0.000000
  1.337670  0.366700  0.000000
  1.409950  0.000000  0.000000
  1.338650  0.284240  0.000000
  1.386460  0.043300  0.000000
  1.354150  0.119670  0.000000
  1.313920  0.410000  0.000000
  1.316290  0.328550  0.000000
  1.332940  0.164270  0.000000
  1.312360  0.242750  0.000000
  1.362970  0.000000  0.000000
  1.290300  0.366700  0.000000
  1.295390  0.283330  0.000000
  1.339680  0.043300  0.000000
  1.325730  0.078680  0.000000
  1.304410  0.123360  0.000000
  1.266670  0.410000  0.000000
  1.266740  0.323400  0.000000
  1.272670  0.239000  0.000000
  1.283210  0.168120  0.000000
  1.316400  0.000000  0.000000
  1.243180  0.366700  0.000000
  1.246180  0.281190  0.000000
  1.293330  0.043300  0.000000
  1.277840  0.081590  0.000000
  1.256410  0.126460  0.000000
  1.219690  0.410000  0.000000
  1.219750  0.323400  0.000000
  1.233390  0.170720  0.000000
  1.222230  0.237350  0.000000
  1.270260  0.000000  0.000000
  1.196320  0.366700  0.000000
  1.247400  0.043300  0.000000
  1.196390  0.280100  0.000000
  1.229040  0.084940  0.000000
  1.205650  0.129050  0.000000
  1.189490  0.207370  0.000000
  1.172960  0.410000  0.000000
  1.173020  0.323400  0.000000
  1.224540  0.000000  0.000000
  1.181510  0.158020  0.000000
  1.201900  0.043300  0.000000
  1.149720  0.366700  0.000000
  1.179360  0.086600  0.000000
  1.143430  0.291070  0.000000
  1.144660  0.247780  0.000000
  1.126490  0.410000  0.000000
  1.142770  0.189580  0.000000
  1.179250  0.000000  0.000000
  1.134770  0.140320  0.000000
  1.156830  0.043300  0.000000
  1.103400  0.366700  0.000000
  1.100860  0.316520  0.000000
  1.099450  0.268150  0.000000
  1.103580  0.220000  0.000000
  1.080300  0.410000  0.000000
  1.096330  0.172140  0.000000
  1.134410  0.000000  0.000000
  1.100760  0.105310  0.000000
  1.058360  0.324420  0.000000
  1.099400  0.056460  0.000000
  1.059350  0.282410  0.000000
  1.062400  0.233330  0.000000
  1.051490  0.361960  0.000000
  1.062400  0.206670  0.000000
  1.062400  0.140000  0.000000
  1.034380  0.410000  0.000000
  1.090000  0.000000  0.000000
  1.032380  0.305960  0.000000
  1.027830  0.333570  0.000000
  1.033760  0.246670  0.000000
  1.028220  0.281830  0.000000
  1.059860  0.078570  0.000000
  1.030770  0.220170  0.000000
  1.033760  0.193330  0.000000
  1.015410  0.368300  0.000000
  1.056850  0.040910  0.000000
  1.013850  0.293330  0.000000
  1.011380  0.313820  0.000000
  1.013850  0.280000  0.000000
  1.013850  0.266670  0.000000
  1.013850  0.240000  0.000000
  1.012290  0.252000  0.000000
  1.025480  0.152840  0.000000
  1.013850  0.226670  0.000000
  1.028350  0.124560  0.000000
  1.002130  0.333160  0.000000
  1.012290  0.214670  0.000000
  1.013850  0.200000  0.000000
  1.032380  0.094040  0.000000
  1.000000  0.300000  0.000000
  1.012290  0.188000  0.000000
  1.013850  0.173330  0.000000
[...]
POINT_DATA 2042
SCALARS pressure double
LOOKUP_TABLE default
  0.221327
  0.310939
  -0.047564
  0.242954
  0.644122
  0.176337
  0.496406
  0.223202
  0.258285
  0.446470
  0.021236
  0.112378
  0.364499
  0.262017
  0.073051
  -0.094091
  0.483502
  0.179103
  0.316849
  0.451605
  0.357973
  0.162364
  0.690147
  0.969052
  0.581886
  0.047693
  0.321359
  0.642646
  0.491728
  0.457512
  0.284779
  0.590984
  0.596932
  0.572164
  0.902142
  0.894212
  0.436775
  -0.007873
  0.557900
  0.322594
  0.538498
  0.715365
  0.714560
  0.481695
  0.671662
  0.942362
  0.689908
  0.548825
  -0.026971
  0.629971
  0.864682
  0.557115
  0.798589
  0.628753
  0.853648
  0.743726
  0.592509
  0.703760
  0.919625
  1.055884
  0.613614
  0.698979
  -0.147951
  0.413062
  0.919486
  0.554240
  0.838085
  1.090357
  0.794181
  0.671050
  0.919952
  0.601174
  0.782670
  1.125601
  0.653552
  1.114330
  0.737031
  0.916482
  0.865897
  1.001398
  0.862359
  1.133093
  0.723580
  0.805136
  1.051775
  1.152022
  1.152378
  0.792856
  0.948605
  0.931683
  1.012804
  0.866336
  1.158339
  1.105349
  0.871097
  1.107279
  1.208444
  1.003501
  1.207801
  1.040004
  0.929838
  1.111024
  0.924278
  1.220330
  1.168665
  1.179617
  1.053062
  1.339046
  1.002328
  1.255285
  1.127507
  1.002518
  1.175551
  1.232559
  1.313792
  1.226308
  1.010723
  1.179800
  1.040441
  1.442424
  1.213511
  1.281107
  1.266455
  1.274063
  1.244879
  1.116360
  0.916594
  1.096061
  1.302757
  1.199271
  1.336804
  1.386598
  1.289053
  1.347283
  1.546077
  1.389484
  1.306823
  1.355145
  1.221402
  1.307271
  1.382313
  1.405721
  1.297428
  1.362015
  1.461084
  1.384934
  1.416153
  1.564805
  1.484409
  1.407170
  1.132620
  1.488464
  1.674101
  1.577774
  1.497776
  1.300631
  1.560631
  1.619490
  1.652100
  1.231510
  1.581786
  1.530597
  1.597970
  1.708622
  1.667021
  1.612616
  1.662730
  1.700348
  1.709914
  1.566782
  1.688741
  1.646201
  1.679255
  1.691149
  1.747125
  1.726710
  1.700822
  1.729523
  1.654531
  1.769118
  1.779936
  1.715221
  1.715531
  1.767747
  1.742660
  1.812414
  1.795829
  1.767100
  1.721970
  1.803373
  1.756240
  1.843151
  1.850677
  1.777803
  1.807533
  1.833935
  1.872678
  1.858950
  1.828447
  1.796412
  1.815154
  1.866549
  1.911197
  1.916897
  1.844033
  1.882704
  1.904840
  1.934796
  1.924967
  1.884676
  1.863177
  1.870022
  1.934930
  1.920246
  1.978874
  1.977415
  1.976579
  1.998028
  1.990939
  1.952295
  1.909727
  1.896908
  2.001153
  1.951508
  2.049802
  2.029365
  2.060919
  2.043735
  1.972942
  2.072216
  1.975234
  2.044128
  2.103599
  2.106477
  2.083618
  2.128203
  2.033269
  2.125426
  2.116408
  2.041304
  2.114893
  2.112442
  2.174945
  2.167961
  2.194161
  2.148226
  2.120908
  2.177064
  2.185173
  2.102470
  2.189647
  2.195312
  2.235671
  2.256121
  2.240870
  2.246868
  2.218376
  2.229273
  2.149552
  2.290004
  2.260185
  2.217806
  2.276958
  2.398694
  2.308103
  2.374311
  2.325161
  2.287266
  2.322737
  2.229024
  2.363571
  2.387605
  2.483530
  2.369953
  2.568364
  2.443840
  2.160852
  2.324307
  2.427274
  2.443278
  2.455125
  2.249667
  2.419719
  2.212352
  2.419276
  2.555759
  2.143329
  2.539606
  2.588464
  2.449664
  2.566742
  2.453744
  2.574437
  2.241342
  2.628887
  2.627505
  2.634788
  2.668822
  2.467376
  2.664078
  2.625131
  2.582054
  2.093189
  2.740160
  2.723774
  2.734473
  2.724277
  2.715856
  2.724248
  2.636596
  2.718125
  2.593325
  2.866250
  2.716772
  2.693655
  2.484239
  2.776666
  2.684658
  2.680612
  2.771576
  2.772335
  2.770376
  2.696798
  2.767830
  2.351517
  2.685980
  2.829131
  2.765253
  2.157912
  2.788598
  2.674951
  2.762448
  2.791010
  2.753875
  2.671296
  2.745198
  2.654207
  2.822743
  2.741457
  2.814164
  2.741937
  2.742195
  2.813683
  2.568111
  2.820880
  2.735422
  2.838744
  2.802109
  2.833212
  2.840693
  2.724085
  2.781550
  2.807214
  2.695341
  2.791336
  2.849900
  2.681578
  2.836971
  2.859760
  2.854937
  2.822640
  2.783184
  2.809140
  2.828997
  2.883356
  2.850914
  2.868018
  2.877454
  2.752123
  2.783117
  2.886122
  2.816323
  2.874775
  2.716398
  2.842774
  2.863358
  2.908425
  2.881220
  2.749201
  2.907303
  2.901670
  2.830045
  2.915643
  2.861726
  2.936604
  2.881222
  2.800365
  2.910177
  2.899500
  2.924195
  2.849090
  2.783703
  2.939158
  2.615064
  2.871485
  3.071953
  2.893865
  2.851933
  2.913299
  2.963736
  3.195682
  2.931196
  2.942857
  2.798752
  2.956564
  2.882238
  2.973881
  2.910937
  2.927661
  3.022689
  2.867916
  2.959154
  2.950075
  2.973007
  2.987165
  3.064831
  2.840074
  2.924473
  2.946176
  2.909434
  2.963693
  3.004675
  2.978874
  2.991885
  2.881195
  3.004162
  2.977684
  3.018463
  2.963675
  2.979385
  2.946488
  2.927518
  3.008914
  2.999772
  3.003652
  3.020039
  3.033083
  2.899774
  2.982571
  2.999649
  2.947338
  3.014336
  2.966838
  3.045175
  3.029337
  2.949019
  3.040837
  3.048914
  2.836559
  3.062121
  3.018461
  3.003830
  3.034255
  3.020211
  3.046618
  2.986795
  3.057348
  3.068692
  3.110072
  3.078206
  3.017456
  3.091582
  3.039084
  3.053025
  3.066282
  2.924236
  3.031238
  3.086212
  3.097545
  3.079647
  3.035296
  3.099033
  3.108215
  3.072596
  3.085230
  3.062410
  3.097007
  3.132322
  3.057490
  3.107447
  3.107104
  3.117550
  3.127216
  3.153448
  3.138282
  3.094771
  3.106720
  3.118203
  3.127113
  3.091767
  3.135672
  3.153439
  3.112664
  3.033067
  3.143626
  3.103588
  3.157354
  3.175935
  3.126415
  3.137756
  3.119690
  3.148864
  3.186485
  3.162339
  3.158029
  3.159576
  3.174349
  3.176153
  3.181602
  3.159526
  3.147645
  3.177843
  3.170710
  3.186044
  3.147770
  3.191880
  3.112369
  3.192165
  3.203515
  3.180027
  3.190629
  3.168144
  3.199961
  3.211722
  3.208849
  3.224473
  3.127704
  3.222280
  3.164867
  3.199906
  3.231460
  3.213155
  3.222973
  3.195645
  3.229574
  3.236747
  3.177849
  3.238194
  3.241509
  3.084432
  3.252181
  3.233961
  3.222817
  3.243219
  3.252268
  3.258381
  3.261490
  3.245744
  3.259384
  3.270583
  3.271811
  3.215661
  3.254993
  3.264431
  3.239353
  3.275626
  3.244745
  3.281742
  3.200730
  3.287734
  3.234554
  3.264336
  3.291484
  3.299562
  3.280366
  3.246300
  3.288283
  3.264798
  3.296339
  3.304750
  3.310054
  3.315915
  3.303140
  3.258668
  3.364352
  3.312702
  3.321232
  3.309209
  3.317950
  3.326409
  3.309046
  3.333465
  3.238256
  3.339274
  3.306008
  3.336988
  3.311601
  3.344172
  3.339225
  3.342699
  3.349787
  3.357226
  3.362247
  3.314384
  3.367280
  3.370234
  3.356552
  3.330113
  3.364321
  3.371625
  3.379045
  3.363391
  3.386183
  3.360898
  3.391312
  3.384912
  3.391997
  3.381212
  3.396538
  3.370488
  3.394463
  3.389651
  3.401553
  3.408196
  3.459937
  3.414710
  3.412813
  3.378225
  3.419687
  3.364215
  3.421682
  3.414540
  3.424736
  3.416341
  3.432113
  3.438963
  3.437751
  3.424380
  3.443876
  3.442509
  3.448579
  3.447288
  3.431959
  3.448112
  3.454545
  3.460766
  3.467686
  3.584185
  3.479323
  3.471964
  3.472069
  3.465775
  3.453517
  3.470459
  3.483134
  3.477917
  3.475331
  3.536951
  3.487866
  3.492641
  3.489372
  3.480666
  3.496747
  3.480161
  3.501662
  3.498295
  3.506092
  3.501503
  3.513683
  3.520974
  3.521147
  3.525217
  3.499142
  3.492045
  3.529333
  3.526172
  3.528458
  3.523903
  3.536704
  3.530070
  3.544602
  3.445036
  3.530392
  3.550162
  3.522719
  3.555395
  3.550015
  3.549515
  3.558194
  3.549313
  3.567128
  3.510206
  3.533619
  3.575109
  3.578558
  3.579629
  3.578781
  3.484735
  3.573442
  3.579614
  3.576281
  3.579824
  3.589091
  3.640591
  3.599000
  3.583816
  3.603863
  3.591263
  3.610059
  3.603166
  3.597758
  3.599899
  3.609362
  3.604172
  3.620494
  3.629956
  3.638565
  3.597749
  3.633603
  3.617968
  3.633078
  3.627194
  3.620709
  3.639096
  3.628771
  3.624106
  3.654507
  3.630446
  3.632609
  3.659669
  3.396432
  3.664147
  3.638087
  3.656041
  3.649690
  3.646748
  3.659509
  3.671547
  3.644924
  3.633239
  3.689005
  3.689611
  3.688656
  3.645030
  3.678099
  3.673839
  3.665981
  3.668397
  3.690858
  3.489489
  3.709604
  3.711375
  3.667099
  3.716487
  3.722480
  3.673811
  3.708938
  3.672875
  3.698169
  3.690233
  3.705755
  3.726536
  3.667713
  3.746669
  3.747343
  3.697720
  3.742820
  3.694171
  3.697722
  3.727868
  3.713038
  3.718995
  3.740164
  3.705644
  3.770726
  3.702092
  3.730048
  3.778865
  3.778832
  3.717259
  3.762069
  3.747930
  3.734719
  3.752047
  3.780886
  3.811627
  3.747778
  3.809895
  3.800815
  3.776739
  3.739550
  3.762104
  3.762463
  3.748174
  3.789473
  3.710568
  3.830765
  3.841574
  3.742734
  3.761854
  3.844941
  3.753924
  3.811469
  3.791788
  3.773385
  3.796001
  3.833271
  3.732610
  3.881352
  3.877443
  3.863032
  3.743264
  3.857125
  3.754885
  3.823426
  3.801546
  3.780218
  3.835397
  3.890004
  3.800017
  3.915959
  3.772240
  3.682747
  3.903743
  3.773365
  3.861637
  3.807254
  3.836500
  3.882062
  3.833037
  3.952043
  3.744458
  3.945879
  3.914394
  3.778735
  3.865137
  3.819192
  3.835007
  3.805001
  3.877179
  3.942951
  3.767687
  3.995847
  3.799390
  3.962994
  3.818117
  3.840893
  3.908232
  3.824557
  3.871334
  3.834736
  3.870393
  3.926579
  4.012951
  4.015325
  3.843950
  3.841612
  3.965011
  3.793575
  3.775280
  3.902689
  3.868526
  3.864043
  3.823685
  3.910184
  3.991452
  3.814546
  4.056544
  3.910644
  4.025348
  3.948135
  3.862793
  3.800965
  3.899372
  3.854976
  3.896957
  3.957725
  4.060197
  3.874960
  3.796816
  4.076011
  3.910144
  4.012473
  3.932914
  3.894624
  3.883592
  3.934857
  4.013506
  3.838873
  4.114263
  3.821233
  4.067593
  3.979382
  3.643274
  3.883872
  3.916244
  3.915268
  3.874671
  3.977827
  4.083992
  3.890192
  4.120753
  4.038713
  3.849351
  3.943982
  3.899729
  4.024774
  3.909064
  3.906339
  3.946515
  3.878059
  4.131223
  3.853939
  4.095540
  3.850425
  3.984691
  3.895523
  3.923253
  3.781655
  3.901067
  3.903629
  3.928243
  4.081432
  3.976961
  4.127054
  4.039252
  3.898128
  3.886894
  3.939023
  3.909573
  3.920246
  3.947229
  3.910828
  4.002237
  3.905210
  4.135226
  4.081554
  3.968149
  3.914757
  3.892204
  3.905727
  3.915501
  3.932463
  4.019017
  3.961238
  4.135520
  3.981747
  3.916904
  3.894007
  3.907545
  3.904775
  3.925361
  3.940313
  3.913432
  3.950152
  3.911449
  3.939981
  3.966842
  3.891025
  3.916435
  3.896152
  3.907006
  4.015790
  3.952429
  3.921987
  3.927333
  3.941759
  3.981726
  3.867373
  3.936872
  3.922339
  4.034568
  3.910545
  3.900964
  3.925041
  3.917044
  3.807638
  3.920593
  3.930041
  3.919313
  3.926196
  3.815155
  3.942200
  3.911518
  3.866415
  3.791385
  3.910641
  3.931616
  3.797154
  3.925960
  3.883603
  3.924067
  3.892226
  3.782267
  3.969631
  3.898820
  3.810907
  3.934619
  3.934252
  3.910840
  3.941785
  3.628690
  3.648519
  3.964560
  3.941140
  3.574502
  3.919390
  3.766981
  3.631641
  3.923830
  3.873641
  3.685202
  3.838551
  3.954644
  3.894414
  3.955166
  3.988294
  3.936534
  3.454230
  3.464095
  3.944372
  3.965283
  3.903968
  3.789426
  3.522222
  3.639595
  3.463828
  4.017660
  3.503790
  4.081982
  3.982884
  3.774949
  3.935113
  3.928618
  3.874568
  3.861072
  3.472975
  3.492635
  3.689599
  3.517709
  3.965214
  3.985980
  3.518462
  3.970500
  3.583246
  3.978903
  3.625076
  3.970256
  3.908137
  3.810342
  3.663916
  3.959636
  3.723638
  3.851154
  4.028478
  3.738239
  3.967886
  3.701054
  4.020292
  3.756545
  3.946064
  3.936381
  3.879914
  3.749992
  3.998038
  3.761392
  4.022999
  4.003929
  4.034247
  3.800188
  3.780356
  3.970416
  3.903639
  4.003235
  3.933773
  3.849253
  3.854036
  3.983685
  4.087784
  3.804379
  3.820970
  4.074737
  3.989592
  3.836919
  3.834964
  3.839683
  3.832329
  3.968637
  3.919466
  4.033983
  4.034084
  4.100805
  3.978744
  3.860909
  3.905708
  4.072733
  3.955480
  3.881986
  4.023861
  3.904478
  3.913219
  4.022532
  4.034231
  3.970382
  3.926261
  4.116537
  3.909664
  4.012185
  3.902337
  3.921065
  4.007290
  3.926755
  3.909787
  3.969080
  4.050508
  4.070105
  4.009959
  4.172374
  3.949492
  3.990666
  3.922551
  4.037980
  3.972261
  3.992172
  4.058730
  4.009733
  4.254128
  3.940014
  4.137718
  4.041113
  4.109937
  4.002095
  4.002209
  3.994607
  4.052796
  4.016203
  4.154342
  4.181676
  4.027233
  4.012079
  4.057719
  4.101202
  4.045235
  4.020003
  4.037597
  4.071990
  4.342443
  4.034552
  4.034869
  4.029570
  4.265729
  4.098880
  4.050541
  4.052055
  4.145062
  4.168440
  4.076911
  4.044436
  4.138006
  4.074925
  4.106657
  4.058554
  4.076731
  4.057549
  4.063498
  4.069650
  4.135328
  4.082207
  4.147095
  4.073138
  4.087002
  4.067289
  4.103560
  4.065512
  4.146513
  4.092519
  4.075063
  4.081570
  4.070417
  4.154753
  4.109963
  4.097658
  4.090105
  4.166794
  4.093105
  4.146101
  4.105737
  4.145448
  4.142348
  4.125427
  4.103381
  4.170320
  4.121633
  4.127732
  4.134257
  4.145893
  4.105177
  4.129201
  4.118875
  4.181052
  4.134906
  4.217205
  4.147540
  4.125702
  4.125069
  4.205240
  4.350845
  4.157400
  4.188942
  4.150869
  4.155147
  4.173619
  4.215191
  4.162216
  4.151816
  4.228118
  4.164451
  4.173921
  4.159222
  4.186562
  4.163196
  4.232416
  4.236648
  4.168971
  4.177340
  4.214053
  4.254176
  4.182081
  4.252502
  4.243201
  4.229650
  4.187670
  4.249222
  4.258163
  4.197104
  4.185074
  4.369677
  4.267546
  4.220640
  4.268091
  4.263455
  4.122494
  4.199897
  4.208054
  4.203014
  4.274058
  4.226003
  4.215877
  4.282089
  4.280071
  4.219383
  4.233503
  4.217517
  4.293061
  4.280403
  4.289116
  4.278936
  4.239314
  4.219708
  4.248349
  4.302859
  4.314076
  4.239975
  4.302401
  4.276745
  4.229645
  4.320690
  4.308879
  4.260841
  4.313293
  4.342736
  4.259589
  4.240911
  4.282519
  4.276014
  4.320646
  4.256939
  4.341110
  4.332590
  4.290781
  4.336771
  4.236929
  4.341174
  4.248130
  4.281847
  4.374943
  4.281004
  4.305839
  4.331952
  4.375423
  4.345211
  4.362101
  4.277633
  4.302673
  4.329796
  4.325710
  4.372622
  4.389049
  4.306488
  4.294538
  4.393853
  4.331082
  4.392791
  4.373938
  4.325296
  4.414741
  4.330218
  4.289077
  4.333223
  4.435583
  4.415118
  4.324882
  4.386520
  4.413718
  4.318952
  4.352425
  4.355809
  4.455063
  4.335072
  4.370353
  4.354459
  4.271922
  4.462763
  4.420325
  4.382435
  4.448156
  4.424662
  4.459575
  4.449221
  4.398733
  4.439650
  4.490887
  4.384430
  4.332492
  4.488190
  4.445390
  4.481070
  4.373109
  4.452666
  4.372298
  4.470992
  4.411124
  4.456163
  4.472470
  4.411971
  4.448336
  4.510358
  4.508128
  4.472600
  4.346807
  4.501086
  4.479663
  4.432088
  4.498711
  4.539901
  4.376431
  4.449702
  4.455823
  4.495302
  4.487370
  4.416105
  4.442586
  4.398520
  4.530669
  4.531223
  4.489649
  4.574337
  4.452597
  4.496089
  4.588810
  4.567245
  4.588133
  4.519557
  4.520644
  4.530996
  4.615527
  4.551040
  4.488352
  4.418802
  4.609770
  4.357518
  4.462848
  4.553398
  4.535365
  4.638475
  4.435485
  4.585770
  4.608773
  4.523805
  4.439908
  4.662349
  4.648093
  4.504785
  4.630778
  4.426713
  4.641792
  4.561702
  4.603754
  4.680709
  4.435812
  4.680536
  4.599248
  4.664049
  4.548500
  4.683293
  4.355457
  4.678376
  4.503051
  4.575325
  4.468073
  4.646736
  4.684254
  4.254028
  4.680556
  4.601979
  4.560677
  4.721723
  4.701909
  4.539419
  4.699617
  4.598271
  4.761776
  4.696736
  4.702305
  4.651842
  4.456533
  4.780840
  4.599659
  4.686455
  4.601171
  4.711202
  4.807260
  4.524550
  4.777252
  4.489009
  4.707823
  4.747520
  4.664720
  4.652333
  4.819206
  4.588378
  4.774949
  4.802596
  4.635795
  4.859193
  4.785608
  4.417228
  4.701749
  4.738502
  4.656134
  4.884703
  4.464336
  4.830427
  4.848147
  4.894562
  4.618367
  4.850791
  4.514712
  4.768952
  4.934467
  4.720152
  4.572930
  4.684082
  4.877163
  4.422360
  4.850395
  4.972450
  4.628957
  4.651761
  4.889919
  4.696545
  4.743475
  4.893757
  4.835669
  4.474704
  5.007223
  4.950287
  5.025016
  4.938265
  4.628224
  5.037680
  4.543604
  4.821981
  4.978760
  4.603954
  4.770554
  5.076150
  4.695926
  4.425617
  4.620423
  4.921959
  4.648664
  4.939560
  5.028343
  4.699488
  5.112297
  4.766954
  4.501989
  5.069807
  4.301445
  5.033325
  5.036980
  5.148765
  4.624954
  4.866365
  4.558065
  5.081386
  4.856953
  5.163402
  4.689159
  4.637934
  5.186454
  5.107877
  5.198160
  4.772391
  4.993903
  5.006821
  4.488042
  4.623000
  4.756496
  5.129613
  4.531319
  5.248086
  5.168746
  4.690015
  5.255794
  5.112499
  4.882493
  4.602414
  4.554027
  4.839765
  5.209310
  4.652176
  5.179960
  5.316279
  4.490367
  4.607279
  4.752089
  5.201746
  5.020303
  4.981182
  4.572932
  5.274429
  4.514785
  4.692697
  5.182616
  4.567755
  5.341836
  4.645971
  4.850927
  5.083135
  4.530674
  4.753130
  5.199653
  5.138925
  5.253671
  4.560185
  4.556061
  5.155180
  4.839736
  4.556725
  4.537526
  5.268137
  4.667988
  4.908488
  4.494885
  5.158044
  4.529936
  4.495818
  5.154385
  4.973216
  4.456053
  4.479881
  4.480388
  4.557476
  5.045335
  4.470150
  4.483970
  4.501743
  5.122997
  4.990003
  4.363386
  4.955523
  4.578156
  4.834613
  4.512904
  4.456837
  4.468301
  4.855216
  4.713249
  4.378394
  4.840901
  4.199800
  4.497365
  4.754932
  4.254890
  4.599393
  4.493973
  4.400044
  4.426179
  4.418547
  4.401951
  3.976671
  4.417778
  4.548001
  4.493474
  4.027103
  4.264536
  4.429247
  4.666115
  3.772518
  4.345751
  4.202831
  4.250578
  3.681390
  4.426152
  4.161471
  4.047603
  4.036388
  4.041377
  4.023102
  4.186429
  3.276580
  4.369241
  4.318157
  3.970993
  3.689831
  4.553432
  3.220121
  3.594300
  3.740760
  3.915434
  3.513018
  3.574201
  4.196880
  3.602740
  4.091034
  3.241604
  3.015953
  4.379844
  3.465447
  3.647427
  3.337740
  3.154144
  3.907422
  2.540865
  4.198626
  4.254227
  3.234389
  3.808890
  2.895041
  2.958966
  4.391099
  3.070430
  3.458132
  4.001514
  2.556978
  3.029700
  2.876467
  4.445375
  2.642861
  4.283883
  4.001415
  2.478693
  2.935144
  2.805228
  3.291555
  2.321731
  2.753461
  4.087529
  3.734690
  2.729159
  3.592776
  4.500387
  4.265143
  2.619314
  2.412527
  2.748994
  2.814206
  5.088107
  2.615761
  2.692382
  3.061073
  3.885878
  2.526652
  2.681378
  2.705027
  4.606460
  2.805320
  2.850804
  2.404936
  2.525013
  2.677057
  2.725750
  3.931434
  2.225654
  2.627747
  4.962874
  2.734995
  2.322748
  4.247240
  2.890203
  2.715600
  2.559244
  2.906612
  2.843352
  2.725387
  2.349128
  2.553264
  2.886791
  2.531241
  2.276544
  2.556056
  4.231487
  3.398608
  2.906155
  2.378114
  3.977603
  2.339168
  2.553069
  2.668364
  2.328722
  3.637599
  2.571957
  2.313542
  3.168386
  2.574079
  2.536932
  2.077502
  2.248637
  2.200247
  2.349576
  2.095736
  2.308379
  2.162343
  2.334638
  3.907446
  2.150908
  2.329400
  2.142360
  2.336562
  4.210040
  1.852487
  2.225460
  3.916504
  4.305815
  2.158659
  1.794183
  3.163338
  3.396392
  2.621872
  2.096092
  2.122532
  1.682275
  2.162389
  1.761120
  1.975518
  2.177726
  1.759246
  4.561327
  4.753409
  3.922840
  1.859611
  4.222848
  1.302259
  1.746537
  1.230074
  1.765449
  1.768178
  1.172048
  1.170237
  1.689920
  4.360664
  1.201935
  3.937177
  4.804069
  1.938699
  3.399835
  2.001149
  3.200463
  1.265648
  5.157724
  1.131380
  0.724931
  1.150266
  1.132955
  0.579727
  0.483341
  0.494187
  4.064807
  4.883590
  4.341338
  1.159897
  0.876585
  3.411451
  3.951135
  5.973301
  4.596138
  2.176056
  3.333799
  0.683436
  0.442747
  0.461565
  0.422251
  2.242749
  4.857879
  -0.108988
  -0.144486
  0.012041
  0.295171
  4.284063
  4.421946
  0.823237
  0.874009
  5.114114
  4.082689
  -0.185006
  4.785523
  -0.116660
  -0.129480
  3.774785