# vtk DataFile Version 2.0
FSI_Simulation
ASCII

DATASET UNSTRUCTURED_GRID
POINTS 2042 double
  2.500000  0.410000  0.000000
  2.450000  0.410000  0.000000
  2.500000  0.358750  0.000000
  2.455000  0.345150  0.000000
  2.400000  0.410000  0.000000
  2.500000  0.307500  0.000000
  2.409170  0.352960  0.000000
  2.425000  0.303110  0.000000
  2.350000  0.410000  0.000000
  2.359860  0.354270  0.000000
  2.500000  0.256250  0.000000
  2.450000  0.259810  0.000000
  2.375000  0.303110  0.000000
  2.400000  0.259810  0.000000
  2.300000  0.410000  0.000000
  2.500000  0.205000  0.000000
  2.325000  0.303110  0.000000
  2.425000  0.216510  0.000000
  2.300000  0.346410  0.000000
  2.350000  0.259810  0.000000
  2.375000  0.216510  0.000000
  2.450000  0.173210  0.000000
  2.275000  0.303110  0.000000
  2.250000  0.410000  0.000000
  2.300000  0.259810  0.000000
  2.500000  0.153750  0.000000
  2.400000  0.173210  0.000000
  2.250000  0.346410  0.000000
  2.325000  0.216510  0.000000
  2.350000  0.173210  0.000000
  2.429170  0.133880  0.000000
  2.250000  0.259810  0.000000
  2.225000  0.303110  0.000000
  2.275000  0.216510  0.000000
  2.200000  0.410000  0.000000
  2.197270  0.363510  0.000000
  2.375000  0.129900  0.000000
  2.500000  0.102500  0.000000
  2.300000  0.173210  0.000000
  2.450000  0.086600  0.000000
  2.325000  0.129900  0.000000
  2.200000  0.259810  0.000000
  2.225000  0.216510  0.000000
  2.400000  0.086600  0.000000
  2.250000  0.173210  0.000000
  2.170490  0.306770  0.000000
  2.150000  0.410000  0.000000
  2.350000  0.086600  0.000000
  2.500000  0.051250  0.000000
  2.275000  0.129900  0.000000
  2.135420  0.358250  0.000000
  2.429170  0.044630  0.000000
  2.175000  0.216510  0.000000
  2.300000  0.086600  0.000000
  2.150000  0.259810  0.000000
  2.200000  0.173210  0.000000
  2.375000  0.043300  0.000000
  2.225000  0.129900  0.000000
  2.112500  0.313250  0.000000
  2.100000  0.410000  0.000000
  2.325000  0.043300  0.000000
  2.250000  0.086600  0.000000
  2.500000  0.000000  0.000000
  2.450000  0.000000  0.000000
  2.125000  0.216510  0.000000
  2.400000  0.000000  0.000000
  2.150000  0.173210  0.000000
  2.075000  0.366700  0.000000
  2.175000  0.129900  0.000000
  2.275000  0.043300  0.000000
  2.087500  0.269950  0.000000
  2.350000  0.000000  0.000000
  2.200000  0.086600  0.000000
  2.050000  0.410000  0.000000
  2.300000  0.000000  0.000000
  2.050000  0.323400  0.000000
  2.225000  0.043300  0.000000
  2.100000  0.173210  0.000000
  2.125000  0.129900  0.000000
  2.062500  0.226650  0.000000
  2.150000  0.086600  0.000000
  2.025000  0.366700  0.000000
  2.250000  0.000000  0.000000
  2.175000  0.043300  0.000000
  2.025000  0.280100  0.000000
  2.000000  0.410000  0.000000
  2.000000  0.323400  0.000000
  2.200000  0.000000  0.000000
  2.070830  0.133290  0.000000
  2.100000  0.086600  0.000000
  2.037500  0.183350  0.000000
  2.125000  0.043300  0.000000
  1.975000  0.366700  0.000000
  2.000000  0.236790  0.000000
  2.150000  0.000000  0.000000
  1.975000  0.280100  0.000000
  1.950000  0.410000  0.000000
  2.050000  0.086600  0.000000
  1.950000  0.323400  0.000000
  2.012500  0.140050  0.000000
  2.075000  0.043300  0.000000
  1.975000  0.193490  0.000000
  2.100000  0.000000  0.000000
  1.925000  0.366700  0.000000
  1.950000  0.236790  0.000000
  1.925000  0.280100  0.000000
  2.000000  0.086600  0.000000
  1.900000  0.410000  0.000000
  2.025000  0.043300  0.000000
  1.900000  0.323400  0.000000
  1.950000  0.150190  0.000000
  2.050000  0.000000  0.000000
  1.925000  0.193490  0.000000
  1.900000  0.236790  0.000000
  1.875000  0.366700  0.000000
  1.875000  0.280100  0.000000
  1.975000  0.043300  0.000000
  1.937500  0.096750  0.000000
  2.000000  0.000000  0.000000
  1.850000  0.410000  0.000000
  1.902380  0.145780  0.000000
  1.850000  0.323400  0.000000
  1.875000  0.193490  0.000000
  1.850000  0.236790  0.000000
  1.820830  0.365370  0.000000
  1.925000  0.043300  0.000000
  1.950000  0.000000  0.000000
  1.800000  0.410000  0.000000
  1.850000  0.150190  0.000000
  1.877180  0.088810  0.000000
  1.810710  0.280600  0.000000
  1.800000  0.323400  0.000000
  1.820830  0.195410  0.000000
  1.800000  0.236790  0.000000
  1.900000  0.000000  0.000000
  1.875360  0.035430  0.000000
  1.825000  0.106890  0.000000
  1.800000  0.150190  0.000000
  1.750000  0.410000  0.000000
  1.750000  0.358750  0.000000
  1.750000  0.307500  0.000000
  1.750000  0.256250  0.000000
  1.825000  0.043300  0.000000
  1.850000  0.000000  0.000000
  1.750000  0.205000  0.000000
  1.793300  0.076870  0.000000
  1.750000  0.153750  0.000000
  1.700640  0.410000  0.000000
  1.704300  0.327190  0.000000
  1.750000  0.102500  0.000000
  1.800000  0.000000  0.000000
  1.706240  0.242410  0.000000
  1.676060  0.366700  0.000000
  1.679550  0.284150  0.000000
  1.704500  0.168810  0.000000
  1.750000  0.051250  0.000000
  1.682040  0.198780  0.000000
  1.655740  0.327710  0.000000
  1.651490  0.410000  0.000000
  1.750000  0.000000  0.000000
  1.656690  0.241750  0.000000
  1.703750  0.082910  0.000000
  1.678980  0.125940  0.000000
  1.627030  0.366700  0.000000
  1.631170  0.284620  0.000000
  1.654610  0.169080  0.000000
  1.632070  0.198270  0.000000
  1.607330  0.328120  0.000000
  1.602560  0.410000  0.000000
  1.700280  0.000000  0.000000
  1.675600  0.043300  0.000000
  1.655160  0.082380  0.000000
  1.606810  0.241470  0.000000
  1.630810  0.125620  0.000000
  1.578220  0.366700  0.000000
  1.582990  0.284920  0.000000
  1.604730  0.168150  0.000000
  1.578920  0.210800  0.000000
  1.650920  0.000000  0.000000
  1.559000  0.328320  0.000000
  1.553870  0.410000  0.000000
  1.626430  0.043300  0.000000
  1.606660  0.082260  0.000000
  1.556930  0.242380  0.000000
  1.582820  0.125810  0.000000
  1.529630  0.366700  0.000000
  1.534940  0.284960  0.000000
  1.555320  0.166880  0.000000
  1.601940  0.000000  0.000000
  1.530950  0.199810  0.000000
  1.577650  0.043300  0.000000
  1.510670  0.328200  0.000000
  1.505400  0.410000  0.000000
  1.558080  0.082770  0.000000
  1.534730  0.126670  0.000000
  1.507460  0.243800  0.000000
  1.481280  0.366700  0.000000
  1.486910  0.284640  0.000000
  1.506480  0.166500  0.000000
  1.553350  0.000000  0.000000
  1.529250  0.043300  0.000000
  1.482130  0.200990  0.000000
  1.462240  0.327690  0.000000
  1.457160  0.410000  0.000000
  1.509220  0.083990  0.000000
  1.486020  0.128110  0.000000
  1.458500  0.244760  0.000000
  1.433170  0.366700  0.000000
  1.438620  0.283990  0.000000
  1.458930  0.158770  0.000000
  1.505150  0.000000  0.000000
  1.481250  0.043300  0.000000
  1.434180  0.201480  0.000000
  1.459870  0.085670  0.000000
  1.413590  0.326890  0.000000
  1.409170  0.410000  0.000000
  1.409940  0.244800  0.000000
  1.385300  0.366700  0.000000
  1.389560  0.283370  0.000000
  1.409090  0.158420  0.000000
  1.457350  0.000000  0.000000
  1.433650  0.043300  0.000000
  1.386550  0.201040  0.000000
  1.410050  0.086600  0.000000
  1.364750  0.326450  0.000000
  1.361420  0.410000  0.000000
  1.361460  0.243860  0.000000
  1.337670  0.366700  0.000000
  1.409950  0.000000  0.000000
  1.338650  0.284240  0.000000
  1.386460  0.043300  0.000000
  1.354150  0.119670  0.000000
  1.313920  0.410000  0.000000
  1.316290  0.328550  0.000000
  1.332940  0.164270  0.000000
  1.312360  0.242750  0.000000
  1.362970  0.000000  0.000000
  1.290300  0.366700  0.000000
  1.295390  0.283330  0.000000
  1.339680  0.043300  0.000000
  1.325730  0.078680  0.000000
  1.304410  0.123360  0.000000
  1.266670  0.410000  0.000000
  1.266740  0.323400  0.000000
  1.272670  0.239000  0.000000
  1.283210  0.168120  0.000000
  1.316400  0.000000  0.000000
  1.243180  0.366700  0.000000
  1.246180  0.281190  0.000000
  1.293330  0.043300  0.000000
  1.277840  0.081590  0.000000
  1.256410  0.126460  0.000000
  1.219690  0.410000  0.000000
  1.219750  0.323400  0.000000
  1.233390  0.170720  0.000000
  1.222230  0.237350  0.000000
  1.270260  0.000000  0.000000
  1.196320  0.366700  0.000000
  1.247400  0.043300  0.000000
  1.196390  0.280100  0.000000
  1.229040  0.084940  0.000000
  1.205650  0.129050  0.000000
  1.189490  0.207370  0.000000
  1.172960  0.410000  0.000000
  1.173020  0.323400  0.000000
  1.224540  0.000000  0.000000
  1.181510  0.158020  0.000000
  1.201900  0.043300  0.000000
  1.149720  0.366700  0.000000
  1.179360  0.086600  0.000000
  1.143430  0.291070  0.000000
  1.144660  0.247780  0.000000
  1.126490  0.410000  0.000000
  1.142770  0.189580  0.000000
  1.179250  0.000000  0.000000
  1.134770  0.140320  0.000000
  1.156830  0.043300  0.000000
  1.103400  0.366700  0.000000
  1.100860  0.316520  0.000000
  1.099450  0.268150  0.000000
  1.103580  0.220000  0.000000
  1.080300  0.410000  0.000000
  1.096330  0.172140  0.000000
  1.134410  0.000000  0.000000
  1.100760  0.105310  0.000000
  1.058360  0.324420  0.000000
  1.099400  0.056460  0.000000
  1.059350  0.282410  0.000000
  1.062400  0.233330  0.000000
  1.051490  0.361960  0.000000
  1.062400  0.206670  0.000000
  1.062400  0.140000  0.000000
  1.034380  0.410000  0.000000
  1.090000  0.000000  0.000000
  1.032380  0.305960  0.000000
  1.027830  0.333570  0.000000
  1.033760  0.246670  0.000000
  1.028220  0.281830  0.000000
  1.059860  0.078570  0.000000
  1.030770  0.220170  0.000000
  1.033760  0.193330  0.000000
  1.015410  0.368300  0.000000
  1.056850  0.040910  0.000000
  1.013850  0.293330  0.000000
  1.011380  0.313820  0.000000
  1.013850  0.280000  0.000000
  1.013850  0.266670  0.000000
  1.013850  0.240000  0.000000
  1.012290  0.252000  0.000000
  1.025480  0.152840  0.000000
  1.013850  0.226670  0.000000
  1.028350  0.124560  0.000000
  1.002130  0.333160  0.000000
  1.012290  0.214670  0.000000
  1.013850  0.200000  0.000000
  1.032380  0.094040  0.000000
  1.000000  0.300000  0.000000
  1.012290  0.188000  0.000000
  1.013850  0.173330  0.000000
[...]
POINT_DATA 2042
SCALARS pressure double
LOOKUP_TABLE default
  0.205491
  0.068874
  -0.067104
  0.008586
  0.340317
  0.141389
  0.208643
  0.029411
  -0.044751
  0.133202
  0.020236
  0.031580
  0.099459
  0.074477
  -0.238701
  -0.056316
  0.170771
  0.060503
  -0.014955
  0.169438
  0.136497
  0.070366
  0.323861
  0.551002
  0.239396
  0.044010
  0.124517
  0.266569
  0.196422
  0.180837
  0.093758
  0.213667
  0.199399
  0.223541
  0.422715
  0.428605
  0.169951
  -0.010670
  0.220903
  0.098599
  0.213240
  0.288781
  0.311421
  0.195875
  0.281810
  0.445201
  0.184479
  0.225966
  -0.039300
  0.257549
  0.340103
  0.223837
  0.333638
  0.263416
  0.359301
  0.308499
  0.244533
  0.287639
  0.382771
  0.498841
  0.246739
  0.294108
  -0.195918
  0.129618
  0.405745
  0.214669
  0.359270
  0.515500
  0.335464
  0.273902
  0.380033
  0.242487
  0.338924
  0.506446
  0.269543
  0.519605
  0.306006
  0.399528
  0.370299
  0.439345
  0.373144
  0.521354
  0.310385
  0.336578
  0.466700
  0.518198
  0.520600
  0.340164
  0.411360
  0.407060
  0.442831
  0.371827
  0.520910
  0.489234
  0.383869
  0.483850
  0.554144
  0.438152
  0.538261
  0.455520
  0.401307
  0.490923
  0.412173
  0.550251
  0.516669
  0.521180
  0.450216
  0.641419
  0.429187
  0.561333
  0.506028
  0.431107
  0.519669
  0.544918
  0.609954
  0.536106
  0.419813
  0.545496
  0.428019
  0.700385
  0.544379
  0.564178
  0.555528
  0.548243
  0.517419
  0.513062
  0.342597
  0.362648
  0.591056
  0.534037
  0.595770
  0.614614
  0.544024
  0.577360
  0.892099
  0.708796
  0.571516
  0.583792
  0.420877
  0.503475
  0.575581
  0.601777
  0.566571
  0.624672
  0.633956
  0.612583
  0.605852
  0.682291
  0.624624
  0.581829
  0.390483
  0.638269
  0.757268
  0.683641
  0.635978
  0.485498
  0.668428
  0.711180
  0.728298
  0.424345
  0.691826
  0.631937
  0.686335
  0.764445
  0.728179
  0.695963
  0.723677
  0.751100
  0.759484
  0.668840
  0.750043
  0.709150
  0.737462
  0.739556
  0.773614
  0.752373
  0.736496
  0.758605
  0.724654
  0.784418
  0.791375
  0.760167
  0.749616
  0.778169
  0.764546
  0.800965
  0.784688
  0.770240
  0.767366
  0.793166
  0.776077
  0.816443
  0.820298
  0.784628
  0.802396
  0.809694
  0.824747
  0.811064
  0.797476
  0.805652
  0.802649
  0.823339
  0.845008
  0.846749
  0.817234
  0.839683
  0.839999
  0.849819
  0.841656
  0.822711
  0.827347
  0.820313
  0.845854
  0.869777
  0.871200
  0.869631
  0.876123
  0.873996
  0.870672
  0.858346
  0.850942
  0.837552
  0.879124
  0.872401
  0.898611
  0.888790
  0.903679
  0.891449
  0.943211
  0.909863
  0.887617
  0.905148
  0.931973
  0.925799
  0.922090
  0.927118
  0.907810
  0.930038
  0.930254
  0.881217
  0.951398
  0.926110
  0.970872
  0.949512
  0.962201
  0.936990
  0.959272
  0.949453
  0.955947
  0.928592
  0.971937
  0.966707
  1.004638
  0.999539
  0.969938
  0.955170
  1.043306
  0.976920
  0.949897
  1.005012
  1.008052
  0.930512
  0.961622
  1.107410
  1.009470
  1.130268
  1.008602
  1.036823
  1.022087
  0.924964
  1.037968
  1.031068
  1.131855
  1.008254
  1.208438
  1.089456
  0.854606
  0.972441
  1.053743
  1.024184
  1.026800
  0.893504
  1.003384
  0.878771
  1.031100
  1.095704
  0.821314
  1.067010
  1.096970
  1.025141
  1.081972
  0.994438
  1.137238
  0.909101
  1.074157
  1.092412
  1.109886
  1.109467
  1.003809
  1.116477
  1.090677
  1.040116
  0.685001
  1.144097
  1.121391
  1.139563
  1.133404
  1.131888
  1.135428
  1.086089
  1.132249
  1.043228
  1.236065
  1.128848
  1.115200
  0.952912
  1.146351
  1.103841
  1.100552
  1.147625
  1.147997
  1.147942
  1.109248
  1.147633
  0.850591
  1.103336
  1.174357
  1.146138
  0.710040
  1.178677
  1.096563
  1.144487
  1.161930
  1.137884
  1.088100
  1.130935
  1.070998
  1.165094
  1.126705
  1.163953
  1.125999
  1.125657
  1.162589
  1.012858
  1.158044
  1.121064
  1.170598
  1.156248
  1.170172
  1.172658
  1.113046
  1.135699
  1.156287
  1.089148
  1.147366
  1.171959
  1.085417
  1.169680
  1.179368
  1.177328
  1.153289
  1.140588
  1.153219
  1.162996
  1.188674
  1.173520
  1.165253
  1.185469
  1.121011
  1.138326
  1.189962
  1.155392
  1.183721
  1.114690
  1.167428
  1.177014
  1.204431
  1.185283
  1.120568
  1.196634
  1.193719
  1.160166
  1.199749
  1.174109
  1.207568
  1.182961
  1.146461
  1.196268
  1.191246
  1.202123
  1.233478
  1.153606
  1.207435
  1.025369
  1.177636
  1.297271
  1.187275
  1.171159
  1.195776
  1.218401
  1.383915
  1.203454
  1.208350
  1.147624
  1.213713
  1.182116
  1.218261
  1.193663
  1.200684
  1.256503
  1.180162
  1.213851
  1.209939
  1.219475
  1.224138
  1.268294
  1.185408
  1.199096
  1.207605
  1.194904
  1.214633
  1.231826
  1.220846
  1.225804
  1.188988
  1.230872
  1.334046
  1.233839
  1.214446
  1.220424
  1.208381
  1.205830
  1.231914
  1.228350
  1.229619
  1.236091
  1.240874
  1.215100
  1.222205
  1.228286
  1.176652
  1.233678
  1.218969
  1.244566
  1.239402
  1.224202
  1.243467
  1.246184
  1.159807
  1.249537
  1.235672
  1.231703
  1.241333
  1.218723
  1.245766
  1.229210
  1.249549
  1.253434
  1.299975
  1.255655
  1.260596
  1.259940
  1.244351
  1.248692
  1.253171
  1.282485
  1.244375
  1.259888
  1.257748
  1.258048
  1.251110
  1.263832
  1.265066
  1.256444
  1.260590
  1.254732
  1.264582
  1.267254
  1.254195
  1.267829
  1.243728
  1.270957
  1.272845
  1.315273
  1.274431
  1.265735
  1.269017
  1.272637
  1.275647
  1.267574
  1.277854
  1.276558
  1.286218
  1.261639
  1.279893
  1.271423
  1.282171
  1.300314
  1.276580
  1.280392
  1.277099
  1.283945
  1.294592
  1.287118
  1.286507
  1.299198
  1.317228
  1.290834
  1.291519
  1.288798
  1.285077
  1.294591
  1.292299
  1.296311
  1.288787
  1.294273
  1.267707
  1.297295
  1.300456
  1.296466
  1.300192
  1.293803
  1.303171
  1.305266
  1.305414
  1.316753
  1.231985
  1.307376
  1.295944
  1.304163
  1.309043
  1.308753
  1.311920
  1.304847
  1.314052
  1.315106
  1.298131
  1.309681
  1.315058
  1.245799
  1.316523
  1.316241
  1.312864
  1.319890
  1.322936
  1.323864
  1.323723
  1.318487
  1.315779
  1.322006
  1.324466
  1.316532
  1.324009
  1.327767
  1.309043
  1.331761
  1.318977
  1.333958
  1.242857
  1.334073
  1.312259
  1.312984
  1.333383
  1.332582
  1.332522
  1.308103
  1.336037
  1.334862
  1.339831
  1.343051
  1.343453
  1.343954
  1.331248
  1.320931
  1.394629
  1.335572
  1.342453
  1.343364
  1.347687
  1.351119
  1.341477
  1.353999
  1.218781
  1.353691
  1.338307
  1.346161
  1.332765
  1.352680
  1.352179
  1.356147
  1.360055
  1.363448
  1.363632
  1.325631
  1.363779
  1.359518
  1.347339
  1.332898
  1.363358
  1.367839
  1.371370
  1.359208
  1.374990
  1.351216
  1.373886
  1.359739
  1.365276
  1.349482
  1.372409
  1.359279
  1.375390
  1.370458
  1.379757
  1.383753
  1.377585
  1.384314
  1.353754
  1.367450
  1.384552
  1.340426
  1.378482
  1.362736
  1.387934
  1.382399
  1.392157
  1.396467
  1.380066
  1.386251
  1.394678
  1.364284
  1.393817
  1.377260
  1.386593
  1.395679
  1.400047
  1.405273
  1.405977
  1.501281
  1.368076
  1.405608
  1.396910
  1.378435
  1.388312
  1.384258
  1.412585
  1.407766
  1.404437
  1.485912
  1.391987
  1.419444
  1.398421
  1.403669
  1.416369
  1.375195
  1.414572
  1.411310
  1.420065
  1.414982
  1.427490
  1.429050
  1.440323
  1.427752
  1.409765
  1.365682
  1.420812
  1.408363
  1.426469
  1.421200
  1.434572
  1.402678
  1.442600
  1.327313
  1.424648
  1.439458
  1.389054
  1.438207
  1.422511
  1.432172
  1.439915
  1.428161
  1.451324
  1.369099
  1.436783
  1.453358
  1.452387
  1.442071
  1.441257
  1.376537
  1.426438
  1.444916
  1.439386
  1.419080
  1.455640
  1.490160
  1.468980
  1.437225
  1.464215
  1.423478
  1.462904
  1.444458
  1.427709
  1.449393
  1.458878
  1.445730
  1.474540
  1.481956
  1.456896
  1.419057
  1.477218
  1.446479
  1.464804
  1.444836
  1.428795
  1.475365
  1.461857
  1.454161
  1.496730
  1.443970
  1.453979
  1.493257
  1.276326
  1.486761
  1.430222
  1.463860
  1.444426
  1.464342
  1.476795
  1.496366
  1.457263
  1.429099
  1.514848
  1.505163
  1.487041
  1.455882
  1.462218
  1.476608
  1.465190
  1.442974
  1.494906
  1.267426
  1.494444
  1.524637
  1.462231
  1.523745
  1.513495
  1.435615
  1.482905
  1.463589
  1.459433
  1.476338
  1.492418
  1.519071
  1.467119
  1.546601
  1.534106
  1.442679
  1.508280
  1.472840
  1.475456
  1.478562
  1.452777
  1.489658
  1.512161
  1.472318
  1.551377
  1.465830
  1.440289
  1.557681
  1.537891
  1.433602
  1.500747
  1.473437
  1.486936
  1.505760
  1.538647
  1.577335
  1.444103
  1.563491
  1.530803
  1.490520
  1.474579
  1.460321
  1.499142
  1.482884
  1.526492
  1.481322
  1.573081
  1.586870
  1.475725
  1.433832
  1.564978
  1.439283
  1.515524
  1.478491
  1.492492
  1.515040
  1.554322
  1.467323
  1.602442
  1.592943
  1.513045
  1.419415
  1.549651
  1.470724
  1.499576
  1.504492
  1.484163
  1.535452
  1.587950
  1.460871
  1.614368
  1.479671
  1.355619
  1.586865
  1.428344
  1.528577
  1.493878
  1.519517
  1.561811
  1.482926
  1.622349
  1.407276
  1.616341
  1.567174
  1.473312
  1.505002
  1.452524
  1.504605
  1.481327
  1.538717
  1.594567
  1.460317
  1.638349
  1.475918
  1.602397
  1.432049
  1.464990
  1.535464
  1.448880
  1.486372
  1.491323
  1.517898
  1.563866
  1.629826
  1.634255
  1.450754
  1.440386
  1.573091
  1.468754
  1.465811
  1.503712
  1.464541
  1.500797
  1.471994
  1.534032
  1.596719
  1.467895
  1.646124
  1.458453
  1.610700
  1.533252
  1.443967
  1.461047
  1.476733
  1.482285
  1.509808
  1.555148
  1.636045
  1.444696
  1.455938
  1.632013
  1.457695
  1.568395
  1.494648
  1.454810
  1.488195
  1.522484
  1.580544
  1.464079
  1.653135
  1.380985
  1.590918
  1.519357
  1.175903
  1.436436
  1.463537
  1.494745
  1.471219
  1.539159
  1.621468
  1.433568
  1.615221
  1.541986
  1.453854
  1.469901
  1.434847
  1.561026
  1.437878
  1.476266
  1.499907
  1.458356
  1.628860
  1.452244
  1.558262
  1.389926
  1.482093
  1.428021
  1.437031
  1.419364
  1.419847
  1.461039
  1.473977
  1.585649
  1.504342
  1.572337
  1.494031
  1.451837
  1.410053
  1.428311
  1.410740
  1.457052
  1.467867
  1.447763
  1.502943
  1.450381
  1.590810
  1.500407
  1.428860
  1.398621
  1.405954
  1.397733
  1.443399
  1.447010
  1.500692
  1.457185
  1.536115
  1.408171
  1.445011
  1.405398
  1.366567
  1.379127
  1.433764
  1.430272
  1.436393
  1.420398
  1.391180
  1.439710
  1.377916
  1.330373
  1.395266
  1.352213
  1.373762
  1.431366
  1.436535
  1.424369
  1.413815
  1.406842
  1.377736
  1.305735
  1.407801
  1.433338
  1.460593
  1.347960
  1.350800
  1.454988
  1.356991
  1.236517
  1.372983
  1.411533
  1.380607
  1.422416
  1.243157
  1.383021
  1.351709
  1.295010
  1.215653
  1.430259
  1.408345
  1.200021
  1.385646
  1.319177
  1.416944
  1.427116
  1.197295
  1.386830
  1.324134
  1.232580
  1.359474
  1.388902
  1.346735
  1.412541
  1.072581
  1.079961
  1.373429
  1.394551
  0.999618
  1.334197
  1.176848
  1.032779
  1.357085
  1.285340
  1.087747
  1.243203
  1.415036
  1.299359
  1.354417
  1.369801
  1.435459
  0.884363
  0.904666
  1.370292
  1.395756
  1.313849
  1.183052
  0.929986
  1.051817
  0.870494
  1.395197
  0.906525
  1.501875
  1.367448
  1.163984
  1.325719
  1.336092
  1.259141
  1.249382
  0.889543
  0.899190
  1.070808
  0.910957
  1.401395
  1.358978
  0.905075
  1.420510
  0.991106
  1.357297
  0.999526
  1.383855
  1.295980
  1.181474
  1.050577
  1.358293
  1.076143
  1.219806
  1.392342
  1.118549
  1.336897
  1.084949
  1.429967
  1.115901
  1.330239
  1.299647
  1.245831
  1.098618
  1.399089
  1.131222
  1.381166
  1.362552
  1.423526
  1.137695
  1.146945
  1.401141
  1.258250
  1.379969
  1.299654
  1.200103
  1.209686
  1.335368
  1.437516
  1.141959
  1.178230
  1.416444
  1.356354
  1.173493
  1.165813
  1.191879
  1.185862
  1.312982
  1.264147
  1.394537
  1.372567
  1.432662
  1.332985
  1.186248
  1.243704
  1.416611
  1.287476
  1.224635
  1.380619
  1.219892
  1.242083
  1.352671
  1.370502
  1.311134
  1.254568
  1.429777
  1.223974
  1.358388
  1.235843
  1.236630
  1.330759
  1.235744
  1.236440
  1.293898
  1.398526
  1.384455
  1.344558
  1.464757
  1.251781
  1.302720
  1.242357
  1.378814
  1.281490
  1.284457
  1.369175
  1.331296
  1.533120
  1.250672
  1.434249
  1.369334
  1.413806
  1.300067
  1.290750
  1.293110
  1.354757
  1.321973
  1.465382
  1.470876
  1.310674
  1.305222
  1.391394
  1.398760
  1.361248
  1.306647
  1.330243
  1.392257
  1.614839
  1.325198
  1.315838
  1.319656
  1.528479
  1.391924
  1.353993
  1.328981
  1.430567
  1.481002
  1.385319
  1.329029
  1.427815
  1.396421
  1.391041
  1.349334
  1.393174
  1.329951
  1.346981
  1.348345
  1.419025
  1.381125
  1.435788
  1.341122
  1.363102
  1.346475
  1.402842
  1.343556
  1.424099
  1.379743
  1.380627
  1.344945
  1.346943
  1.432142
  1.400908
  1.356164
  1.353449
  1.441625
  1.364721
  1.414692
  1.380155
  1.426200
  1.437518
  1.392352
  1.360699
  1.440558
  1.402123
  1.389778
  1.427529
  1.422244
  1.360807
  1.392421
  1.380231
  1.443842
  1.404837
  1.479722
  1.420752
  1.377497
  1.386512
  1.468045
  1.592224
  1.401112
  1.444040
  1.409240
  1.412313
  1.441236
  1.470051
  1.425389
  1.401757
  1.489306
  1.408950
  1.433193
  1.433323
  1.437640
  1.410719
  1.485403
  1.484587
  1.409942
  1.432304
  1.460976
  1.516708
  1.440163
  1.494639
  1.489882
  1.474580
  1.426434
  1.491152
  1.496660
  1.441283
  1.453646
  1.566274
  1.514701
  1.451928
  1.506394
  1.502464
  1.385803
  1.446941
  1.444075
  1.454550
  1.510838
  1.458422
  1.451929
  1.517987
  1.514897
  1.458150
  1.464551
  1.457334
  1.522224
  1.517961
  1.523644
  1.511857
  1.470905
  1.464640
  1.477679
  1.533866
  1.537797
  1.469702
  1.538025
  1.500835
  1.461981
  1.537784
  1.538559
  1.488322
  1.543433
  1.561585
  1.483493
  1.467713
  1.507161
  1.502340
  1.545972
  1.477021
  1.552196
  1.541117
  1.513052
  1.560037
  1.467301
  1.558221
  1.449302
  1.499849
  1.581988
  1.494759
  1.526530
  1.538169
  1.514865
  1.564130
  1.559056
  1.482053
  1.519786
  1.524761
  1.542450
  1.589215
  1.595190
  1.515520
  1.498488
  1.604144
  1.548389
  1.584299
  1.552232
  1.543892
  1.622806
  1.547424
  1.479641
  1.538377
  1.641354
  1.608066
  1.521241
  1.544745
  1.588382
  1.500887
  1.570105
  1.563350
  1.656992
  1.519222
  1.585529
  1.547564
  1.468498
  1.663515
  1.466880
  1.596639
  1.622060
  1.570058
  1.651769
  1.649704
  1.613275
  1.590762
  1.685907
  1.576651
  1.501245
  1.662075
  1.654603
  1.678688
  1.548342
  1.570401
  1.531665
  1.623776
  1.608856
  1.667641
  1.667765
  1.588207
  1.536035
  1.696657
  1.664160
  1.682382
  1.503058
  1.692103
  1.593073
  1.645710
  1.620839
  1.706298
  1.520160
  1.630409
  1.672162
  1.688137
  1.581247
  1.574333
  1.661000
  1.544611
  1.659145
  1.719252
  1.678951
  1.748508
  1.614942
  1.711479
  1.772035
  1.708052
  1.770682
  1.612877
  1.724139
  1.746881
  1.798107
  1.647110
  1.658328
  1.544141
  1.767894
  1.484920
  1.600467
  1.771592
  1.597196
  1.821471
  1.562481
  1.694266
  1.821771
  1.711091
  1.474198
  1.850667
  1.824542
  1.649350
  1.757566
  1.527020
  1.857152
  1.618185
  1.819717
  1.877016
  1.556131
  1.874752
  1.668790
  1.881469
  1.704301
  1.886405
  1.486669
  1.831038
  1.619813
  1.588868
  1.571311
  1.729401
  1.910010
  1.242226
  1.890271
  1.776375
  1.554646
  1.936653
  1.937790
  1.669969
  1.806430
  1.602481
  1.965942
  1.933411
  1.944535
  1.677157
  1.547118
  1.995233
  1.738151
  1.894694
  1.568554
  1.960056
  2.024000
  1.617803
  1.926471
  1.577968
  1.757607
  1.996565
  1.827771
  1.632453
  2.046808
  1.686417
  1.856554
  2.042684
  1.576825
  2.085684
  2.018263
  1.526996
  1.688258
  1.924703
  1.757907
  2.086265
  1.546017
  2.070496
  1.975874
  2.117703
  1.519772
  2.096372
  1.570687
  1.773797
  2.146452
  1.847604
  1.617017
  1.611104
  2.106123
  1.503681
  1.888047
  2.182908
  1.677574
  1.530041
  2.123456
  1.752721
  1.667604
  2.095618
  1.990700
  1.534084
  2.190286
  2.031289
  2.177210
  2.131844
  1.481536
  2.220071
  1.557729
  1.755354
  2.153494
  1.590676
  1.817245
  2.210820
  1.552716
  1.416739
  1.437925
  1.870458
  1.457058
  2.025658
  2.140843
  1.669880
  2.233039
  1.602025
  1.502730
  2.153694
  1.084397
  2.005932
  2.111011
  2.200035
  1.421140
  1.853184
  1.502030
  2.120071
  1.674682
  2.179115
  1.458168
  1.545356
  2.212278
  2.114564
  2.163053
  1.665736
  1.779295
  1.933696
  1.263247
  1.354885
  1.457143
  2.047639
  1.443819
  2.156608
  2.026023
  1.511229
  2.064438
  1.943426
  1.698371
  1.279055
  1.415434
  1.470987
  1.900538
  1.294678
  1.923800
  2.023519
  1.384783
  1.387614
  1.482263
  1.856866
  1.688242
  1.483552
  1.205454
  1.890972
  1.358103
  1.204540
  1.717642
  1.149713
  1.856462
  1.323149
  1.419867
  1.429496
  1.297063
  1.101187
  1.643255
  1.594787
  1.626455
  1.190969
  1.008021
  1.499664
  0.990464
  1.226378
  1.236457
  1.514524
  1.185991
  1.244756
  1.059940
  1.373609
  0.775306
  1.253759
  1.269808
  0.958475
  0.911092
  1.230247
  1.253889
  1.087500
  1.155646
  1.089406
  0.468835
  1.159990
  1.136751
  1.004008
  0.608329
  0.825713
  0.746976
  0.766601
  0.854961
  0.202558
  1.026736
  0.775867
  1.537915
  0.868995
  0.655646
  0.143596
  1.169397
  0.581908
  0.586625
  0.317510
  1.201357
  -0.012456
  0.995614
  0.221526
  0.785784
  -0.345675
  0.982538
  0.283615
  0.168369
  0.058240
  0.373132
  0.128731
  1.421068
  -0.675558
  0.798636
  -0.190359
  0.720836
  -0.595844
  1.000005
  -0.153851
  -0.340849
  -0.163271
  -0.329952
  -0.305910
  0.433913
  -1.137961
  0.955674
  0.822688
  0.234242
  -0.620026
  1.225903
  -1.102388
  -0.509618
  -0.561994
  -0.143335
  -0.873639
  -0.708437
  0.598443
  -0.667398
  0.556665
  -0.919849
  -1.231639
  0.932091
  -0.828720
  -0.218601
  -0.812150
  -0.989418
  0.057618
  -1.554613
  0.664380
  0.849239
  -0.883186
  0.109922
  -1.220809
  -1.016602
  1.001608
  -1.002871
  -0.682020
  0.318270
  -1.348014
  -0.955765
  -1.070862
  1.283156
  -1.448301
  0.821650
  0.457002
  -1.466547
  -1.038380
  -1.024187
  -0.555822
  -1.449698
  -1.054689
  0.544736
  0.083785
  -1.120732
  -0.274493
  1.234710
  0.807274
  -1.416715
  -1.381823
  -1.123647
  -0.981997
  2.071771
  -1.144071
  -1.123245
  -0.975311
  0.242200
  -1.342484
  -1.119310
  -1.116758
  1.256732
  -0.977734
  -0.946437
  -1.295597
  -1.212911
  -1.122263
  -1.073481
  0.371890
  -1.411136
  -1.129149
  1.666284
  -1.064536
  -1.441273
  0.787246
  -0.912733
  -1.079653
  -1.186146
  -0.898496
  -0.941384
  -1.069778
  -1.355471
  -1.189205
  -0.905259
  -1.206716
  -1.405874
  -1.186181
  0.755544
  -0.290253
  -0.887382
  -1.332591
  0.429240
  -1.365114
  -1.186091
  -1.095462
  -1.372720
  -0.056918
  -1.170468
  -1.387299
  -0.700325
  -1.167924
  -1.357245
  -1.543937
  -1.417183
  -1.420934
  -1.370820
  -1.466455
  -1.394266
  -1.451645
  -1.380028
  0.332933
  -1.453556
  -1.388753
  -1.464203
  -1.383850
  0.747552
  -1.622249
  -1.422604
  0.345591
  0.771590
  -1.466444
  -1.673590
  -0.500218
  -0.330378
  -1.198751
  -1.567500
  -1.472739
  -1.764972
  -1.467976
  -1.692071
  -1.604832
  -1.448687
  -1.689985
  1.180007
  1.219646
  0.305757
  -1.665607
  0.734098
  -2.091427
  -1.773280
  -2.152188
  -1.744712
  -1.730985
  -2.210642
  -2.210405
  -1.829932
  0.752005
  -2.189636
  0.336238
  1.858075
  -1.730593
  -0.247638
  -1.529184
  -0.538017
  -2.216050
  1.509568
  -2.341999
  -2.595269
  -2.312445
  -2.324548
  -2.730402
  -2.833078
  -2.827653
  0.436205
  1.632425
  0.715049
  -2.345183
  -2.475120
  -0.176692
  0.264503
  2.113549
  0.964176
  -1.505306
  -0.423308
  -2.775901
  -2.984806
  -2.971381
  -3.015223
  -1.234888
  1.282131
  -3.450474
  -3.481575