# vtk DataFile Version 2.0
FSI_Simulation
ASCII

DATASET UNSTRUCTURED_GRID
POINTS 2042 double
  2.500000  0.410000  0.000000
  2.450000  0.410000  0.000000
  2.500000  0.358750  0.000000
  2.455000  0.345150  0.000000
  2.400000  0.410000  0.000000
  2.500000  0.307500  0.000000
  2.409170  0.352960  0.000000
  2.425000  0.303110  0.000000
  2.350000  0.410000  0.000000
  2.359860  0.354270  0.000000
  2.500000  0.256250  0.000000
  2.450000  0.259810  0.000000
  2.375000  0.303110  0.000000
  2.400000  0.259810  0.000000
  2.300000  0.410000  0.000000
  2.500000  0.205000  0.000000
  2.325000  0.303110  0.000000
  2.425000  0.216510  0.000000
  2.300000  0.346410  0.000000
  2.350000  0.259810  0.000000
  2.375000  0.216510  0.000000
  2.450000  0.173210  0.000000
  2.275000  0.303110  0.000000
  2.250000  0.410000  0.000000
  2.300000  0.259810  0.000000
  2.500000  0.153750  0.000000
  2.400000  0.173210  0.000000
  2.250000  0.346410  0.000000
  2.325000  0.216510  0.000000
  2.350000  0.173210  0.000000
  2.429170  0.133880  0.000000
  2.250000  0.259810  0.000000
  2.225000  0.303110  0.000000
  2.275000  0.216510  0.000000
  2.200000  0.410000  0.000000
  2.197270  0.363510  0.000000
  2.375000  0.129900  0.000000
  2.500000  0.102500  0.000000
  2.300000  0.173210  0.000000
  2.450000  0.086600  0.000000
  2.325000  0.129900  0.000000
  2.200000  0.259810  0.000000
  2.225000  0.216510  0.000000
  2.400000  0.086600  0.000000
  2.250000  0.173210  0.000000
  2.170490  0.306770  0.000000
  2.150000  0.410000  0.000000
  2.350000  0.086600  0.000000
  2.500000  0.051250  0.000000
  2.275000  0.129900  0.000000
  2.135420  0.358250  0.000000
  2.429170  0.044630  0.000000
  2.175000  0.216510  0.000000
  2.300000  0.086600  0.000000
  2.150000  0.259810  0.000000
  2.200000  0.173210  0.000000
  2.375000  0.043300  0.000000
  2.225000  0.129900  0.000000
  2.112500  0.313250  0.000000
  2.100000  0.410000  0.000000
  2.325000  0.043300  0.000000
  2.250000  0.086600  0.000000
  2.500000  0.000000  0.000000
  2.450000  0.000000  0.000000
  2.125000  0.216510  0.000000
  2.400000  0.000000  0.000000
  2.150000  0.173210  0.000000
  2.075000  0.366700  0.000000
  2.175000  0.129900  0.000000
  2.275000  0.043300  0.000000
  2.087500  0.269950  0.000000
  2.350000  0.000000  0.000000
  2.200000  0.086600  0.000000
  2.050000  0.410000  0.000000
  2.300000  0.000000  0.000000
  2.050000  0.323400  0.000000
  2.225000  0.043300  0.000000
  2.100000  0.173210  0.000000
  2.125000  0.129900  0.000000
  2.062500  0.226650  0.000000
  2.150000  0.086600  0.000000
  2.025000  0.366700  0.000000
  2.250000  0.000000  0.000000
  2.175000  0.043300  0.000000
  2.025000  0.280100  0.000000
  2.000000  0.410000  0.000000
  2.000000  0.323400  0.000000
  2.200000  0.000000  0.000000
  2.070830  0.133290  0.000000
  2.100000  0.086600  0.000000
  2.037500  0.183350  0.000000
  2.125000  0.043300  0.000000
  1.975000  0.366700  0.000000
  2.000000  0.236790  0.000000
  2.150000  0.000000  0.000000
  1.975000  0.280100  0.000000
  1.950000  0.410000  0.000000
  2.050000  0.086600  0.000000
  1.950000  0.323400  0.000000
  2.012500  0.140050  0.000000
  2.075000  0.043300  0.000000
  1.975000  0.193490  0.000000
  2.100000  0.000000  0.000000
  1.925000  0.366700  0.000000
  1.950000  0.236790  0.000000
  1.925000  0.280100  0.000000
  2.000000  0.086600  0.000000
  1.900000  0.410000  0.000000
  2.025000  0.043300  0.000000
  1.900000  0.323400  0.000000
  1.950000  0.150190  0.000000
  2.050000  0.000000  0.000000
  1.925000  0.193490  0.000000
  1.900000  0.236790  0.000000
  1.875000  0.366700  0.000000
  1.875000  0.280100  0.000000
  1.975000  0.043300  0.000000
  1.937500  0.096750  0.000000
  2.000000  0.000000  0.000000
  1.850000  0.410000  0.000000
  1.902380  0.145780  0.000000
  1.850000  0.323400  0.000000
  1.875000  0.193490  0.000000
  1.850000  0.236790  0.000000
  1.820830  0.365370  0.000000
  1.925000  0.043300  0.000000
  1.950000  0.000000  0.000000
  1.800000  0.410000  0.000000
  1.850000  0.150190  0.000000
  1.877180  0.088810  0.000000
  1.810710  0.280600  0.000000
  1.800000  0.323400  0.000000
  1.820830  0.195410  0.000000
  1.800000  0.236790  0.000000
  1.900000  0.000000  0.000000
  1.875360  0.035430  0.000000
  1.825000  0.106890  0.000000
  1.800000  0.150190  0.000000
  1.750000  0.410000  0.000000
  1.750000  0.358750  0.000000
  1.750000  0.307500  0.000000
  1.750000  0.256250  0.000000
  1.825000  0.043300  0.000000
  1.850000  0.000000  0.000000
  1.750000  0.205000  0.000000
  1.793300  0.076870  0.000000
  1.750000  0.153750  0.000000
  1.700640  0.410000  0.000000
  1.704300  0.327190  0.000000
  1.750000  0.102500  0.000000
  1.800000  0.000000  0.000000
  1.706240  0.242410  0.000000
  1.676060  0.366700  0.000000
  1.679550  0.284150  0.000000
  1.704500  0.168810  0.000000
  1.750000  0.051250  0.000000
  1.682040  0.198780  0.000000
  1.655740  0.327710  0.000000
  1.651490  0.410000  0.000000
  1.750000  0.000000  0.000000
  1.656690  0.241750  0.000000
  1.703750  0.082910  0.000000
  1.678980  0.125940  0.000000
  1.627030  0.366700  0.000000
  1.631170  0.284620  0.000000
  1.654610  0.169080  0.000000
  1.632070  0.198270  0.000000
  1.607330  0.328120  0.000000
  1.602560  0.410000  0.000000
  1.700280  0.000000  0.000000
  1.675600  0.043300  0.000000
  1.655160  0.082380  0.000000
  1.606810  0.241470  0.000000
  1.630810  0.125620  0.000000
  1.578220  0.366700  0.000000
  1.582990  0.284920  0.000000
  1.604730  0.168150  0.000000
  1.578920  0.210800  0.000000
  1.650920  0.000000  0.000000
  1.559000  0.328320  0.000000
  1.553870  0.410000  0.000000
  1.626430  0.043300  0.000000
  1.606660  0.082260  0.000000
  1.556930  0.242380  0.000000
  1.582820  0.125810  0.000000
  1.529630  0.366700  0.000000
  1.534940  0.284960  0.000000
  1.555320  0.166880  0.000000
  1.601940  0.000000  0.000000
  1.530950  0.199810  0.000000
  1.577650  0.043300  0.000000
  1.510670  0.328200  0.000000
  1.505400  0.410000  0.000000
  1.558080  0.082770  0.000000
  1.534730  0.126670  0.000000
  1.507460  0.243800  0.000000
  1.481280  0.366700  0.000000
  1.486910  0.284640  0.000000
  1.506480  0.166500  0.000000
  1.553350  0.000000  0.000000
  1.529250  0.043300  0.000000
  1.482130  0.200990  0.000000
  1.462240  0.327690  0.000000
  1.457160  0.410000  0.000000
  1.509220  0.083990  0.000000
  1.486020  0.128110  0.000000
  1.458500  0.244760  0.000000
  1.433170  0.366700  0.000000
  1.438620  0.283990  0.000000
  1.458930  0.158770  0.000000
  1.505150  0.000000  0.000000
  1.481250  0.043300  0.000000
  1.434180  0.201480  0.000000
  1.459870  0.085670  0.000000
  1.413590  0.326890  0.000000
  1.409170  0.410000  0.000000
  1.409940  0.244800  0.000000
  1.385300  0.366700  0.000000
  1.389560  0.283370  0.000000
  1.409090  0.158420  0.000000
  1.457350  0.000000  0.000000
  1.433650  0.043300  0.000000
  1.386550  0.201040  0.000000
  1.410050  0.086600  0.000000
  1.364750  0.326450  0.000000
  1.361420  0.410000  0.000000
  1.361460  0.243860  0.000000
  1.337670  0.366700  0.000000
  1.409950  0.000000  0.000000
  1.338650  0.284240  0.000000
  1.386460  0.043300  0.000000
  1.354150  0.119670  0.000000
  1.313920  0.410000  0.000000
  1.316290  0.328550  0.000000
  1.332940  0.164270  0.000000
  1.312360  0.242750  0.000000
  1.362970  0.000000  0.000000
  1.290300  0.366700  0.000000
  1.295390  0.283330  0.000000
  1.339680  0.043300  0.000000
  1.325730  0.078680  0.000000
  1.304410  0.123360  0.000000
  1.266670  0.410000  0.000000
  1.266740  0.323400  0.000000
  1.272670  0.239000  0.000000
  1.283210  0.168120  0.000000
  1.316400  0.000000  0.000000
  1.243180  0.366700  0.000000
  1.246180  0.281190  0.000000
  1.293330  0.043300  0.000000
  1.277840  0.081590  0.000000
  1.256410  0.126460  0.000000
  1.219690  0.410000  0.000000
  1.219750  0.323400  0.000000
  1.233390  0.170720  0.000000
  1.222230  0.237350  0.000000
  1.270260  0.000000  0.000000
  1.196320  0.366700  0.000000
  1.247400  0.043300  0.000000
  1.196390  0.280100  0.000000
  1.229040  0.084940  0.000000
  1.205650  0.129050  0.000000
  1.189490  0.207370  0.000000
  1.172960  0.410000  0.000000
  1.173020  0.323400  0.000000
  1.224540  0.000000  0.000000
  1.181510  0.158020  0.000000
  1.201900  0.043300  0.000000
  1.149720  0.366700  0.000000
  1.179360  0.086600  0.000000
  1.143430  0.291070  0.000000
  1.144660  0.247780  0.000000
  1.126490  0.410000  0.000000
  1.142770  0.189580  0.000000
  1.179250  0.000000  0.000000
  1.134770  0.140320  0.000000
  1.156830  0.043300  0.000000
  1.103400  0.366700  0.000000
  1.100860  0.316520  0.000000
  1.099450  0.268150  0.000000
  1.103580  0.220000  0.000000
  1.080300  0.410000  0.000000
  1.096330  0.172140  0.000000
  1.134410  0.000000  0.000000
  1.100760  0.105310  0.000000
  1.058360  0.324420  0.000000
  1.099400  0.056460  0.000000
  1.059350  0.282410  0.000000
  1.062400  0.233330  0.000000
  1.051490  0.361960  0.000000
  1.062400  0.206670  0.000000
  1.062400  0.140000  0.000000
  1.034380  0.410000  0.000000
  1.090000  0.000000  0.000000
  1.032380  0.305960  0.000000
  1.027830  0.333570  0.000000
  1.033760  0.246670  0.000000
  1.028220  0.281830  0.000000
  1.059860  0.078570  0.000000
  1.030770  0.220170  0.000000
  1.033760  0.193330  0.000000
  1.015410  0.368300  0.000000
  1.056850  0.040910  0.000000
  1.013850  0.293330  0.000000
  1.011380  0.313820  0.000000
  1.013850  0.280000  0.000000
  1.013850  0.266670  0.000000
  1.013850  0.240000  0.000000
  1.012290  0.252000  0.000000
  1.025480  0.152840  0.000000
  1.013850  0.226670  0.000000
  1.028350  0.124560  0.000000
  1.002130  0.333160  0.000000
  1.012290  0.214670  0.000000
  1.013850  0.200000  0.000000
  1.032380  0.094040  0.000000
  1.000000  0.300000  0.000000
  1.012290  0.188000  0.000000
  1.013850  0.173330  0.000000
[...]
POINT_DATA 2042
SCALARS pressure double
LOOKUP_TABLE default
  7.464905
  38.223821
  -3.518025
  30.578148
  71.753260
  0.052227
  63.470315
  52.188675
  106.037009
  98.743953
  0.024181
  34.846142
  87.996570
  70.385823
  140.116422
  0.218719
  122.594575
  52.765465
  140.280893
  105.376742
  87.838921
  34.963003
  158.015629
  173.657846
  140.462156
  -0.716187
  70.430249
  174.753105
  123.070243
  105.557695
  49.765554
  175.751554
  193.379447
  158.217264
  210.550473
  212.707657
  88.058421
  -0.087504
  140.713189
  35.311446
  123.264170
  210.938967
  193.379563
  70.660401
  175.898265
  231.933850
  247.186070
  105.901310
  -2.136828
  158.403072
  257.013654
  51.248487
  228.604421
  140.972133
  246.157182
  211.030976
  88.748748
  193.530034
  272.526507
  280.973782
  123.537966
  176.036446
  9.677185
  39.531502
  263.727430
  71.718323
  246.209885
  298.623667
  228.672078
  158.587934
  290.091874
  106.261857
  211.135283
  316.080442
  141.159508
  316.490171
  193.647225
  281.327196
  263.769784
  307.723869
  246.259666
  333.836393
  176.131150
  228.717154
  333.967790
  351.474809
  351.610674
  211.196309
  301.875587
  281.391116
  325.175165
  263.814834
  369.158830
  351.651463
  246.278940
  369.213611
  386.790549
  316.404251
  386.742939
  342.866742
  298.937284
  369.244634
  281.369299
  404.416277
  386.728556
  404.425827
  351.582469
  422.067185
  334.106739
  421.958571
  386.670482
  316.530003
  404.386605
  422.062162
  439.655338
  439.424888
  368.926292
  395.704727
  351.688068
  457.149426
  420.539536
  457.181068
  439.560643
  457.056486
  477.205650
  404.260106
  386.273984
  491.826359
  457.175760
  437.469751
  484.742454
  491.648431
  477.745680
  492.482211
  421.583380
  439.419838
  474.637733
  492.518229
  527.563068
  527.638880
  527.662308
  527.930194
  474.540611
  457.777914
  527.619926
  496.801953
  527.559410
  562.751290
  560.478688
  527.618021
  492.036046
  558.265784
  580.066149
  577.122092
  559.701452
  527.573700
  575.492641
  593.953264
  596.980964
  527.617795
  593.419491
  561.074684
  577.648709
  614.167434
  611.532317
  594.919008
  610.791898
  628.161484
  631.437455
  563.246676
  580.611399
  594.441233
  628.426200
  611.961434
  648.606560
  645.234798
  629.982656
  648.143091
  597.578537
  662.170999
  665.736197
  614.735157
  628.742803
  663.705975
  645.396993
  682.834739
  679.128186
  664.849947
  631.985020
  681.942730
  649.079547
  696.176318
  699.918328
  662.925239
  679.331580
  698.415920
  716.874155
  712.922814
  699.102162
  666.170129
  683.159511
  716.302317
  730.278416
  733.853265
  697.186870
  713.716209
  732.944623
  750.731218
  746.927113
  732.694221
  700.162595
  716.977627
  749.978016
  732.041095
  764.508201
  767.625226
  767.005006
  784.432540
  781.433823
  767.489129
  733.835927
  750.326898
  783.673372
  766.902926
  798.903881
  801.273713
  801.302483
  817.964891
  766.856239
  817.248594
  783.590518
  806.335883
  834.653083
  832.997209
  821.434865
  835.722494
  800.073951
  851.255741
  847.819044
  816.553192
  826.416897
  841.412600
  867.894303
  867.895983
  863.833009
  856.320000
  832.968452
  884.488082
  882.368300
  849.136475
  859.944007
  875.211173
  901.004429
  900.953135
  891.343417
  899.260302
  865.519262
  917.258592
  881.451857
  917.386483
  894.382688
  910.819693
  922.445645
  933.613931
  934.011016
  897.454586
  927.817521
  913.503514
  950.291882
  929.214302
  955.039482
  953.786277
  966.769823
  955.165466
  929.552009
  961.066444
  945.048881
  982.936771
  984.449905
  985.817897
  982.861265
  999.137644
  987.815161
  960.749700
  984.696362
  1014.632443
  985.269316
  1013.690601
  1011.989608
  1019.229737
  1011.892860
  1011.568060
  1030.646175
  990.161492
  1033.416031
  1036.588365
  1032.108433
  1036.272802
  1013.478522
  1034.194135
  1032.238440
  1045.514384
  1015.961755
  1046.361422
  1048.000400
  1046.321362
  1046.276408
  1046.327822
  1047.391764
  1038.127696
  1046.322718
  1036.134003
  1054.889894
  1047.419816
  1046.239004
  1033.009709
  1056.204384
  1047.309824
  1046.183443
  1056.135755
  1056.133314
  1056.119951
  1047.387867
  1056.105807
  1035.183365
  1046.272161
  1060.911566
  1056.089008
  1022.952219
  1063.612370
  1046.149611
  1056.087802
  1064.595993
  1056.071949
  1046.165637
  1056.077695
  1046.140085
  1065.394742
  1056.087324
  1064.772684
  1056.076314
  1056.064027
  1065.355866
  1047.855503
  1070.879129
  1056.039851
  1069.999663
  1064.412225
  1068.543956
  1070.202655
  1056.003304
  1074.237251
  1066.092050
  1055.958089
  1064.226004
  1074.599192
  1055.782996
  1070.366140
  1073.914181
  1073.088345
  1078.343011
  1064.244386
  1067.555695
  1070.438259
  1079.192700
  1073.434850
  1082.498035
  1077.374463
  1063.188128
  1065.678000
  1079.739350
  1069.124064
  1077.153063
  1060.203044
  1073.112242
  1076.102581
  1083.824245
  1078.693562
  1065.083952
  1083.197255
  1082.119820
  1072.228496
  1085.680711
  1076.674833
  1088.502841
  1079.556175
  1070.924023
  1083.816794
  1082.283339
  1086.312302
  1064.423606
  1068.562753
  1088.861396
  1054.080686
  1078.845059
  1093.428405
  1082.023262
  1076.892636
  1084.965705
  1093.121878
  1096.790682
  1087.839678
  1089.825101
  1074.366340
  1092.305205
  1081.321690
  1095.371119
  1085.190700
  1087.703642
  1097.840995
  1080.300189
  1092.862945
  1091.380761
  1095.435084
  1097.826845
  1102.316528
  1079.088242
  1087.760960
  1091.058465
  1086.029482
  1093.900314
  1102.348123
  1096.503864
  1098.942077
  1083.725793
  1101.363065
  1074.873070
  1104.379069
  1094.149785
  1096.717729
  1091.691352
  1089.435464
  1102.002345
  1100.272822
  1107.867146
  1104.338954
  1106.912489
  1088.207329
  1097.370342
  1100.230857
  1111.701299
  1102.808069
  1095.182462
  1111.563661
  1105.623231
  1092.905324
  1107.974741
  1109.940515
  1088.588804
  1112.844660
  1103.354838
  1100.835304
  1106.223348
  1116.026155
  1108.584771
  1098.603828
  1110.823324
  1113.435509
  1118.698152
  1115.950197
  1097.581740
  1119.159802
  1106.622696
  1109.292043
  1111.901580
  1083.564118
  1104.331120
  1116.341930
  1120.771874
  1114.650871
  1102.335471
  1119.427214
  1122.240236
  1112.391177
  1114.999480
  1109.966691
  1117.471654
  1125.481320
  1107.659484
  1119.886315
  1128.753013
  1122.448339
  1125.077928
  1107.827097
  1128.242771
  1115.733939
  1118.418279
  1120.924657
  1123.097528
  1113.392759
  1125.348110
  1130.120498
  1111.576432
  1102.836604
  1127.710608
  1115.189170
  1131.312091
  1134.333321
  1121.449080
  1124.017228
  1119.071972
  1126.593055
  1134.690292
  1130.639604
  1128.963825
  1111.664217
  1115.326976
  1134.037732
  1135.866730
  1127.345977
  1124.866798
  1132.061979
  1130.040057
  1134.461299
  1122.620298
  1139.297463
  1120.849961
  1136.725511
  1139.979175
  1130.478422
  1133.070232
  1128.180981
  1135.508455
  1139.654136
  1138.027097
  1144.654850
  1147.039914
  1142.976748
  1125.407584
  1133.571920
  1146.263260
  1136.464576
  1139.041457
  1131.551075
  1141.174930
  1143.581330
  1130.099623
  1148.616993
  1145.656546
  1115.226642
  1149.044097
  1139.542417
  1137.008284
  1142.065570
  1144.621609
  1146.798994
  1148.540457
  1153.283546
  1153.557154
  1153.154457
  1151.960578
  1134.775550
  1142.566546
  1145.149097
  1157.705233
  1148.112475
  1140.700199
  1150.307998
  1159.871730
  1152.643613
  1139.401316
  1157.850141
  1154.671670
  1158.052874
  1145.885979
  1161.455871
  1148.647256
  1139.345762
  1151.095098
  1153.726145
  1155.867251
  1158.390759
  1161.986616
  1143.151538
  1137.588256
  1162.247867
  1160.926724
  1151.523409
  1154.193693
  1156.834361
  1149.777961
  1159.262005
  1169.475893
  1161.753803
  1148.678987
  1165.045351
  1167.115772
  1164.260921
  1155.011524
  1157.749342
  1160.207499
  1162.750698
  1164.947431
  1171.793462
  1167.408181
  1169.723485
  1171.795014
  1153.422588
  1160.522740
  1163.243622
  1165.851813
  1158.802133
  1168.369485
  1157.929239
  1170.804323
  1174.666510
  1174.237601
  1176.488273
  1173.356496
  1145.448129
  1166.523933
  1164.158661
  1168.984367
  1171.510301
  1181.697264
  1173.996339
  1181.250897
  1157.922650
  1176.514592
  1161.531987
  1178.847119
  1181.047586
  1172.326188
  1169.933057
  1174.916289
  1177.395827
  1182.889973
  1167.132981
  1179.908187
  1185.690149
  1182.419152
  1185.618840
  1170.998793
  1175.599977
  1178.042289
  1180.528891
  1183.062684
  1191.914342
  1190.397795
  1185.489151
  1187.991866
  1190.268647
  1171.854380
  1194.692482
  1183.658591
  1181.427526
  1178.913478
  1166.420320
  1192.632710
  1186.510315
  1192.073259
  1176.460538
  1188.929508
  1194.942674
  1191.576870
  1181.669287
  1186.898258
  1184.681260
  1189.565007
  1192.068019
  1176.425502
  1194.593764
  1180.163237
  1200.518194
  1197.624857
  1199.243766
  1190.199616
  1187.652620
  1192.885443
  1201.830008
  1195.273365
  1204.014236
  1185.640566
  1198.016889
  1204.174451
  1200.600901
  1202.538209
  1193.251843
  1195.984799
  1191.329514
  1198.659945
  1207.973306
  1175.209325
  1201.110318
  1203.451405
  1206.136777
  1190.311622
  1210.987476
  1208.343206
  1199.287402
  1196.798101
  1210.822943
  1201.924366
  1186.498225
  1204.271797
  1194.954635
  1206.913535
  1213.403697
  1209.632524
  1211.807470
  1214.187867
  1202.369511
  1204.947352
  1200.472025
  1207.700215
  1210.012007
  1195.242844
  1218.166516
  1212.550757
  1198.731620
  1215.232974
  1217.463640
  1219.847877
  1210.576585
  1208.315596
  1205.901342
  1213.320360
  1222.744383
  1204.162494
  1215.994521
  1224.715591
  1218.404654
  1222.745239
  1220.911360
  1223.276796
  1211.232105
  1214.004218
  1216.225600
  1209.568866
  1226.445197
  1219.329921
  1221.493000
  1224.328639
  1208.709589
  1226.462793
  1216.972611
  1214.580382
  1228.762161
  1219.640197
  1232.894376
  1204.439029
  1222.305116
  1213.390451
  1225.038048
  1227.385718
  1231.944212
  1229.971967
  1216.784377
  1232.368997
  1220.319269
  1222.710203
  1225.288160
  1213.222541
  1227.996196
  1230.354658
  1236.666493
  1232.905930
  1218.109141
  1205.432350
  1235.370270
  1237.679243
  1226.064845
  1228.450661
  1224.077482
  1231.259564
  1222.689791
  1241.764383
  1234.020837
  1235.905174
  1241.275996
  1238.964466
  1241.403729
  1229.427062
  1231.793541
  1234.314564
  1236.997508
  1245.131495
  1239.388396
  1241.894350
  1244.453360
  1228.349980
  1246.818142
  1235.147125
  1232.784127
  1237.515601
  1222.235370
  1240.231789
  1242.230812
  1231.918838
  1252.424671
  1245.376040
  1250.475592
  1247.552109
  1250.306901
  1238.507430
  1240.871362
  1243.239208
  1232.105772
  1245.879597
  1248.320701
  1257.030199
  1255.178469
  1250.883797
  1236.532503
  1253.472110
  1244.233421
  1241.888935
  1246.579869
  1249.162981
  1257.055906
  1251.277260
  1241.120122
  1259.665740
  1253.795408
  1259.752818
  1256.411711
  1247.619764
  1249.937397
  1252.280074
  1260.157274
  1254.520719
  1263.422786
  1257.199858
  1259.823820
  1245.848371
  1262.507506
  1264.774649
  1253.310648
  1251.000562
  1255.635955
  1257.979710
  1236.024314
  1260.259987
  1250.416631
  1262.763891
  1270.922713
  1267.102990
  1265.453595
  1268.981237
  1268.539855
  1256.686971
  1259.004735
  1261.315123
  1263.534352
  1266.096071
  1272.131244
  1273.792961
  1268.708393
  1255.129995
  1249.107105
  1271.463597
  1273.723913
  1262.393382
  1260.087694
  1264.676757
  1266.982473
  1259.625270
  1269.166593
  1279.022577
  1271.629774
  1274.144200
  1278.307585
  1259.020463
  1277.671182
  1265.795376
  1268.064036
  1270.336294
  1272.307502
  1280.606740
  1263.295645
  1275.013807
  1283.223849
  1277.621118
  1280.362061
  1282.780554
  1271.477675
  1273.717209
  1275.970258
  1268.880712
  1278.017952
  1288.363870
  1280.567345
  1283.151431
  1291.111564
  1287.555149
  1285.339381
  1277.130117
  1274.827973
  1279.335762
  1281.259991
  1289.168610
  1283.935376
  1286.437622
  1273.639225
  1288.840585
  1293.163742
  1283.861332
  1291.678877
  1280.575193
  1282.744867
  1278.224617
  1286.857924
  1271.502914
  1289.355042
  1296.969242
  1292.109824
  1296.779863
  1294.400810
  1266.687019
  1297.112157
  1284.040545
  1286.193287
  1289.902516
  1288.327260
  1292.617107
  1295.269549
  1283.111930
  1301.409001
  1298.123668
  1300.548555
  1289.671612
  1291.779083
  1283.700297
  1293.857388
  1287.452495
  1295.642485
  1298.160247
  1300.923210
  1303.208739
  1306.069131
  1306.716658
  1293.171851
  1295.274355
  1298.677127
  1297.303962
  1301.366383
  1303.989577
  1292.287632
  1310.953240
  1306.906755
  1309.528579
  1298.796003
  1300.817413
  1296.732099
  1302.764221
  1312.882898
  1315.954306
  1306.771855
  1309.778264
  1315.545214
  1312.488546
  1314.830394
  1307.279910
  1318.265716
  1302.321126
  1304.372045
  1306.292772
  1310.101328
  1314.648901
  1320.454477
  1302.437713
  1323.754050
  1310.270408
  1318.451915
  1297.056838
  1310.574233
  1315.112987
  1321.259218
  1307.945231
  1309.896047
  1306.014541
  1315.276835
  1324.934020
  1324.094638
  1322.174060
  1320.484149
  1306.075306
  1311.519144
  1317.180695
  1313.523495
  1315.325851
  1309.971521
  1298.075883
  1317.526275
  1330.105823
  1326.631981
  1318.241113
  1330.363684
  1317.142637
  1319.027326
  1315.345577
  1323.303265
  1326.045231
  1334.492778
  1319.059262
  1324.201174
  1333.158093
  1329.522460
  1324.420376
  1322.730381
  1324.444884
  1325.413622
  1332.958288
  1320.367041
  1335.724203
  1338.636797
  1340.589889
  1315.375758
  1329.351790
  1331.271643
  1326.428254
  1324.847738
  1328.258350
  1329.719216
  1329.253520
  1335.102318
  1329.890265
  1344.966198
  1331.211697
  1346.553236
  1343.964029
  1338.884461
  1342.378928
  1332.034800
  1342.231273
  1333.712605
  1334.613958
  1331.413193
  1334.973851
  1331.276414
  1329.752822
  1348.167961
  1334.598051
  1328.030044
  1339.461311
  1347.466325
  1338.502392
  1334.171073
  1337.594331
  1339.042872
  1342.014141
  1337.703861
  1341.882853
  1348.482756
  1353.423091
  1347.025730
  1351.814090
  1345.598143
  1357.370120
  1343.381769
  1341.396855
  1352.957104
  1343.896404
  1345.503288
  1339.194646
  1348.462108
  1358.353311
  1356.748762
  1335.722190
  1348.302186
  1352.118616
  1330.477192
  1355.688774
  1343.730113
  1347.040172
  1348.652135
  1356.037186
  1359.557093
  1363.209640
  1351.730239
  1354.533210
  1363.002478
  1348.471276
  1353.075023
  1354.410943
  1358.199336
  1359.050453
  1362.367515
  1353.524232
  1348.824313
  1366.071984
  1368.041516
  1353.350699
  1357.439400
  1360.501023
  1349.005061
  1365.208356
  1362.678922
  1353.161981
  1360.282397
  1358.450251
  1368.951654
  1374.441084
  1358.263600
  1367.136646
  1372.632741
  1363.342519
  1357.965644
  1366.435738
  1363.894745
  1371.833211
  1366.115684
  1369.118750
  1363.215979
  1358.165024
  1375.483677
  1362.910918
  1377.734932
  1369.009022
  1374.762381
  1372.065679
  1362.666537
  1368.278452
  1371.824050
  1378.390371
  1367.890065
  1382.637536
  1374.968307
  1382.208467
  1367.487269
  1381.949328
  1378.571060
  1375.268891
  1377.778632
  1381.338695
  1372.936639
  1361.896868
  1386.217085
  1377.541996
  1380.097510
  1368.517449
  1384.887944
  1372.493455
  1378.008338
  1384.335815
  1372.187067
  1392.276165
  1378.028118
  1380.376975
  1383.482936
  1392.618981
  1387.849249
  1377.538793
  1383.196493
  1391.796330
  1363.128497
  1377.038324
  1386.318616
  1391.336940
  1373.029856
  1390.839572
  1382.612837
  1376.973798
  1386.005132
  1390.332166
  1389.104008
  1394.310978
  1382.102075
  1396.734110
  1388.766303
  1393.274995
  1391.624142
  1381.714802
  1387.748628
  1397.315095
  1387.183728
  1401.675096
  1392.167597
  1394.778382
  1401.416081
  1386.618332
  1394.389817
  1393.306884
  1402.127751
  1397.585113
  1400.326397
  1392.309755
  1386.714878
  1405.275112
  1400.421744
  1396.764724
  1403.749341
  1391.719535
  1400.367384
  1383.623786
  1391.410914
  1400.012248
  1402.600475
  1397.472360
  1406.780854
  1396.827941
  1410.994403
  1396.253027
  1402.804659
  1405.978754
  1410.810994
  1415.189821
  1405.569037
  1410.035711
  1401.972273
  1408.662388
  1396.321082
  1413.196109
  1401.214864
  1405.757902
  1415.993294
  1407.816408
  1396.643442
  1400.943039
  1411.508613
  1407.150298
  1417.619298
  1416.253546
  1411.158875
  1406.471383
  1414.311155
  1420.668203
  1405.824182
  1420.725446
  1419.605587
  1417.151104
  1413.934928
  1419.298776
  1417.071506
  1411.619975
  1405.835846
  1427.531327
  1424.612767
  1416.694368
  1419.313532
  1422.641712
  1396.539518
  1410.959483
  1416.742695
  1410.631927
  1425.995395
  1418.926547
  1416.627485
  1422.639524
  1425.692344
  1416.097011
  1422.257401
  1415.445045
  1429.036197
  1430.290140
  1425.422349
  1428.744834
  1421.245057
  1415.601341
  1425.028564
  1428.141767
  1432.086705
  1420.576603
  1435.167316
  1427.772248
  1420.286094
  1435.438578
  1431.248663
  1426.395053
  1432.910067
  1435.150559
  1425.720947
  1419.699985
  1430.430950
  1429.954921
  1433.789588
  1425.055891
  1438.480210
  1440.036683
  1433.324394
  1435.981402
  1424.177232
  1438.229443
  1419.364064
  1430.866297
  1441.525163
  1430.189956
  1436.089199
  1444.961961
  1447.711168
  1439.319599
  1444.313033
  1429.937049
  1435.643262
  1447.544977
  1438.829167
  1442.060002
  1444.573314
  1435.331145
  1434.349833
  1444.850192
  1441.053478
  1447.911918
  1449.676417
  1440.718093
  1444.826220
  1444.369955
  1434.972985
  1440.464010
  1447.586677
  1450.945174
  1439.795174
  1454.734511
  1453.938001
  1439.630098
  1447.113618
  1445.372346
  1450.332592
  1442.598701
  1449.866823
  1444.918016
  1429.344339
  1453.647984
  1462.473457
  1449.897380
  1457.329728
  1459.409293
  1456.275341
  1455.568403
  1452.621349
  1460.724834
  1455.873400
  1450.053157
  1445.509460
  1460.361540
  1455.353614
  1458.623206
  1449.973528
  1465.135736
  1449.221193
  1463.725777
  1455.073983
  1458.668488
  1461.385099
  1454.517331
  1469.343770
  1464.281613
  1466.425874
  1460.878700
  1449.718725
  1464.105674
  1469.041008
  1460.406690
  1470.152600
  1467.941660
  1454.199494
  1459.621837
  1463.612105
  1466.757241
  1473.012326
  1458.998814
  1466.361101
  1458.895073
  1473.119178
  1469.535159
  1464.730908
  1472.736620
  1464.073896
  1469.157600
  1472.240049
  1476.108290
  1474.165715
  1478.674754
  1469.576066
  1471.711267
  1474.793807
  1479.547761
  1469.178394
  1464.683984
  1478.801849
  1459.121657
  1468.538966
  1474.465849
  1483.618181
  1477.749096
  1468.494577
  1482.506040
  1477.174243
  1474.285169
  1486.852494
  1480.486292
  1482.191168
  1473.631807
  1485.462089
  1468.894610
  1479.784047
  1488.369791
  1479.350882
  1483.164259
  1472.365302
  1484.665614
  1488.942471
  1482.640875
  1478.704890
  1485.687398
  1463.707086
  1488.426619
  1478.105309
  1493.471272
  1478.077795
  1491.868671
  1485.376830
  1496.334761
  1488.718642
  1483.757432
  1496.634199
  1490.590044
  1488.044400
  1483.179433
  1494.783672
  1498.076299
  1494.161373
  1489.913536
  1490.628848
  1498.771685
  1483.091822
  1494.097784
  1488.223750
  1490.563896
  1502.153370
  1493.567628
  1496.275836
  1488.254966
  1498.867703
  1487.771003
  1501.194573
  1495.605399
  1493.266856
  1504.826966
  1499.508519
  1492.725945
  1504.055019
  1498.928498
  1507.794899
  1502.195167
  1499.014862
  1486.376574
  1507.658933
  1498.619039
  1497.729855
  1504.961153
  1493.655476
  1501.627813
  1506.913262
  1504.867268
  1513.167995
  1504.282203