# vtk DataFile Version 2.0
FSI_Simulation
ASCII

DATASET UNSTRUCTURED_GRID
POINTS 2042 double
  2.500000  0.410000  0.000000
  2.450000  0.410000  0.000000
  2.500000  0.358750  0.000000
  2.455000  0.345150  0.000000
  2.400000  0.410000  0.000000
  2.500000  0.307500  0.000000
  2.409170  0.352960  0.000000
  2.425000  0.303110  0.000000
  2.350000  0.410000  0.000000
  2.359860  0.354270  0.000000
  2.500000  0.256250  0.000000
  2.450000  0.259810  0.000000
  2.375000  0.303110  0.000000
  2.400000  0.259810  0.000000
  2.300000  0.410000  0.000000
  2.500000  0.205000  0.000000
  2.325000  0.303110  0.000000
  2.425000  0.216510  0.000000
  2.300000  0.346410  0.000000
  2.350000  0.259810  0.000000
  2.375000  0.216510  0.000000
  2.450000  0.173210  0.000000
  2.275000  0.303110  0.000000
  2.250000  0.410000  0.000000
  2.300000  0.259810  0.000000
  2.500000  0.153750  0.000000
  2.400000  0.173210  0.000000
  2.250000  0.346410  0.000000
  2.325000  0.216510  0.000000
  2.350000  0.173210  0.000000
  2.429170  0.133880  0.000000
  2.250000  0.259810  0.000000
  2.225000  0.303110  0.000000
  2.275000  0.216510  0.000000
  2.200000  0.410000  0.000000
  2.197270  0.363510  0.000000
  2.375000  0.129900  0.000000
  2.500000  0.102500  0.000000
  2.300000  0.173210  0.000000
  2.450000  0.086600  0.000000
  2.325000  0.129900  0.000000
  2.200000  0.259810  0.000000
  2.225000  0.216510  0.000000
  2.400000  0.086600  0.000000
  2.250000  0.173210  0.000000
  2.170490  0.306770  0.000000
  2.150000  0.410000  0.000000
  2.350000  0.086600  0.000000
  2.500000  0.051250  0.000000
  2.275000  0.129900  0.000000
  2.135420  0.358250  0.000000
  2.429170  0.044630  0.000000
  2.175000  0.216510  0.000000
  2.300000  0.086600  0.000000
  2.150000  0.259810  0.000000
  2.200000  0.173210  0.000000
  2.375000  0.043300  0.000000
  2.225000  0.129900  0.000000
  2.112500  0.313250  0.000000
  2.100000  0.410000  0.000000
  2.325000  0.043300  0.000000
  2.250000  0.086600  0.000000
  2.500000  0.000000  0.000000
  2.450000  0.000000  0.000000
  2.125000  0.216510  0.000000
  2.400000  0.000000  0.000000
  2.150000  0.173210  0.000000
  2.075000  0.366700  0.000000
  2.175000  0.129900  0.000000
  2.275000  0.043300  0.000000
  2.087500  0.269950  0.000000
  2.350000  0.000000  0.000000
  2.200000  0.086600  0.000000
  2.050000  0.410000  0.000000
  2.300000  0.000000  0.000000
  2.050000  0.323400  0.000000
  2.225000  0.043300  0.000000
  2.100000  0.173210  0.000000
  2.125000  0.129900  0.000000
  2.062500  0.226650  0.000000
  2.150000  0.086600  0.000000
  2.025000  0.366700  0.000000
  2.250000  0.000000  0.000000
  2.175000  0.043300  0.000000
  2.025000  0.280100  0.000000
  2.000000  0.410000  0.000000
  2.000000  0.323400  0.000000
  2.200000  0.000000  0.000000
  2.070830  0.133290  0.000000
  2.100000  0.086600  0.000000
  2.037500  0.183350  0.000000
  2.125000  0.043300  0.000000
  1.975000  0.366700  0.000000
  2.000000  0.236790  0.000000
  2.150000  0.000000  0.000000
  1.975000  0.280100  0.000000
  1.950000  0.410000  0.000000
  2.050000  0.086600  0.000000
  1.950000  0.323400  0.000000
  2.012500  0.140050  0.000000
  2.075000  0.043300  0.000000
  1.975000  0.193490  0.000000
  2.100000  0.000000  0.000000
  1.925000  0.366700  0.000000
  1.950000  0.236790  0.000000
  1.925000  0.280100  0.000000
  2.000000  0.086600  0.000000
  1.900000  0.410000  0.000000
  2.025000  0.043300  0.000000
  1.900000  0.323400  0.000000
  1.950000  0.150190  0.000000
  2.050000  0.000000  0.000000
  1.925000  0.193490  0.000000
  1.900000  0.236790  0.000000
  1.875000  0.366700  0.000000
  1.875000  0.280100  0.000000
  1.975000  0.043300  0.000000
  1.937500  0.096750  0.000000
  2.000000  0.000000  0.000000
  1.850000  0.410000  0.000000
  1.902380  0.145780  0.000000
  1.850000  0.323400  0.000000
  1.875000  0.193490  0.000000
  1.850000  0.236790  0.000000
  1.820830  0.365370  0.000000
  1.925000  0.043300  0.000000
  1.950000  0.000000  0.000000
  1.800000  0.410000  0.000000
  1.850000  0.150190  0.000000
  1.877180  0.088810  0.000000
  1.810710  0.280600  0.000000
  1.800000  0.323400  0.000000
  1.820830  0.195410  0.000000
  1.800000  0.236790  0.000000
  1.900000  0.000000  0.000000
  1.875360  0.035430  0.000000
  1.825000  0.106890  0.000000
  1.800000  0.150190  0.000000
  1.750000  0.410000  0.000000
  1.750000  0.358750  0.000000
  1.750000  0.307500  0.000000
  1.750000  0.256250  0.000000
  1.825000  0.043300  0.000000
  1.850000  0.000000  0.000000
  1.750000  0.205000  0.000000
  1.793300  0.076870  0.000000
  1.750000  0.153750  0.000000
  1.700640  0.410000  0.000000
  1.704300  0.327190  0.000000
  1.750000  0.102500  0.000000
  1.800000  0.000000  0.000000
  1.706240  0.242410  0.000000
  1.676060  0.366700  0.000000
  1.679550  0.284150  0.000000
  1.704500  0.168810  0.000000
  1.750000  0.051250  0.000000
  1.682040  0.198780  0.000000
  1.655740  0.327710  0.000000
  1.651490  0.410000  0.000000
  1.750000  0.000000  0.000000
  1.656690  0.241750  0.000000
  1.703750  0.082910  0.000000
  1.678980  0.125940  0.000000
  1.627030  0.366700  0.000000
  1.631170  0.284620  0.000000
  1.654610  0.169080  0.000000
  1.632070  0.198270  0.000000
  1.607330  0.328120  0.000000
  1.602560  0.410000  0.000000
  1.700280  0.000000  0.000000
  1.675600  0.043300  0.000000
  1.655160  0.082380  0.000000
  1.606810  0.241470  0.000000
  1.630810  0.125620  0.000000
  1.578220  0.366700  0.000000
  1.582990  0.284920  0.000000
  1.604730  0.168150  0.000000
  1.578920  0.210800  0.000000
  1.650920  0.000000  0.000000
  1.559000  0.328320  0.000000
  1.553870  0.410000  0.000000
  1.626430  0.043300  0.000000
  1.606660  0.082260  0.000000
  1.556930  0.242380  0.000000
  1.582820  0.125810  0.000000
  1.529630  0.366700  0.000000
  1.534940  0.284960  0.000000
  1.555320  0.166880  0.000000
  1.601940  0.000000  0.000000
  1.530950  0.199810  0.000000
  1.577650  0.043300  0.000000
  1.510670  0.328200  0.000000
  1.505400  0.410000  0.000000
  1.558080  0.082770  0.000000
  1.534730  0.126670  0.000000
  1.507460  0.243800  0.000000
  1.481280  0.366700  0.000000
  1.486910  0.284640  0.000000
  1.506480  0.166500  0.000000
  1.553350  0.000000  0.000000
  1.529250  0.043300  0.000000
  1.482130  0.200990  0.000000
  1.462240  0.327690  0.000000
  1.457160  0.410000  0.000000
  1.509220  0.083990  0.000000
  1.486020  0.128110  0.000000
  1.458500  0.244760  0.000000
  1.433170  0.366700  0.000000
  1.438620  0.283990  0.000000
  1.458930  0.158770  0.000000
  1.505150  0.000000  0.000000
  1.481250  0.043300  0.000000
  1.434180  0.201480  0.000000
  1.459870  0.085670  0.000000
  1.413590  0.326890  0.000000
  1.409170  0.410000  0.000000
  1.409940  0.244800  0.000000
  1.385300  0.366700  0.000000
  1.389560  0.283370  0.000000
  1.409090  0.158420  0.000000
  1.457350  0.000000  0.000000
  1.433650  0.043300  0.000000
  1.386550  0.201040  0.000000
  1.410050  0.086600  0.000000
  1.364750  0.326450  0.000000
  1.361420  0.410000  0.000000
  1.361460  0.243860  0.000000
  1.337670  0.366700  0.000000
  1.409950  0.000000  0.000000
  1.338650  0.284240  0.000000
  1.386460  0.043300  0.000000
  1.354150  0.119670  0.000000
  1.313920  0.410000  0.000000
  1.316290  0.328550  0.000000
  1.332940  0.164270  0.000000
  1.312360  0.242750  0.000000
  1.362970  0.000000  0.000000
  1.290300  0.366700  0.000000
  1.295390  0.283330  0.000000
  1.339680  0.043300  0.000000
  1.325730  0.078680  0.000000
  1.304410  0.123360  0.000000
  1.266670  0.410000  0.000000
  1.266740  0.323400  0.000000
  1.272670  0.239000  0.000000
  1.283210  0.168120  0.000000
  1.316400  0.000000  0.000000
  1.243180  0.366700  0.000000
  1.246180  0.281190  0.000000
  1.293330  0.043300  0.000000
  1.277840  0.081590  0.000000
  1.256410  0.126460  0.000000
  1.219690  0.410000  0.000000
  1.219750  0.323400  0.000000
  1.233390  0.170720  0.000000
  1.222230  0.237350  0.000000
  1.270260  0.000000  0.000000
  1.196320  0.366700  0.000000
  1.247400  0.043300  0.000000
  1.196390  0.280100  0.000000
  1.229040  0.084940  0.000000
  1.205650  0.129050  0.000000
  1.189490  0.207370  0.000000
  1.172960  0.410000  0.000000
  1.173020  0.323400  0.000000
  1.224540  0.000000  0.000000
  1.181510  0.158020  0.000000
  1.201900  0.043300  0.000000
  1.149720  0.366700  0.000000
  1.179360  0.086600  0.000000
  1.143430  0.291070  0.000000
  1.144660  0.247780  0.000000
  1.126490  0.410000  0.000000
  1.142770  0.189580  0.000000
  1.179250  0.000000  0.000000
  1.134770  0.140320  0.000000
  1.156830  0.043300  0.000000
  1.103400  0.366700  0.000000
  1.100860  0.316520  0.000000
  1.099450  0.268150  0.000000
  1.103580  0.220000  0.000000
  1.080300  0.410000  0.000000
  1.096330  0.172140  0.000000
  1.134410  0.000000  0.000000
  1.100760  0.105310  0.000000
  1.058360  0.324420  0.000000
  1.099400  0.056460  0.000000
  1.059350  0.282410  0.000000
  1.062400  0.233330  0.000000
  1.051490  0.361960  0.000000
  1.062400  0.206670  0.000000
  1.062400  0.140000  0.000000
  1.034380  0.410000  0.000000
  1.090000  0.000000  0.000000
  1.032380  0.305960  0.000000
  1.027830  0.333570  0.000000
  1.033760  0.246670  0.000000
  1.028220  0.281830  0.000000
  1.059860  0.078570  0.000000
  1.030770  0.220170  0.000000
  1.033760  0.193330  0.000000
  1.015410  0.368300  0.000000
  1.056850  0.040910  0.000000
  1.013850  0.293330  0.000000
  1.011380  0.313820  0.000000
  1.013850  0.280000  0.000000
  1.013850  0.266670  0.000000
  1.013850  0.240000  0.000000
  1.012290  0.252000  0.000000
  1.025480  0.152840  0.000000
  1.013850  0.226670  0.000000
  1.028350  0.124560  0.000000
  1.002130  0.333160  0.000000
  1.012290  0.214670  0.000000
  1.013850  0.200000  0.000000
  1.032380  0.094040  0.000000
  1.000000  0.300000  0.000000
  1.012290  0.188000  0.000000
  1.013850  0.173330  0.000000
[...]
POINT_DATA 2042
SCALARS pressure double
LOOKUP_TABLE default
  0.203418
  -0.027178
  -0.073573
  -0.089522
  0.228909
  0.127608
  0.099326
  -0.052719
  -0.156356
  0.018962
  0.021777
  0.002660
  -0.002879
  0.004650
  -0.353248
  -0.044087
  0.057881
  0.023986
  -0.131273
  0.071330
  0.059487
  0.040745
  0.200022
  0.415073
  0.124521
  0.043188
  0.054894
  0.140506
  0.094959
  0.084703
  0.019183
  0.089810
  0.068203
  0.106777
  0.276231
  0.285355
  0.070018
  -0.013740
  0.107942
  0.003559
  0.098808
  0.153535
  0.180713
  0.080865
  0.155258
  0.293554
  0.033919
  0.106131
  -0.043599
  0.133137
  0.184432
  0.094405
  0.189803
  0.136573
  0.210318
  0.171586
  0.114274
  0.153938
  0.223619
  0.332884
  0.117181
  0.160269
  -0.209285
  0.024496
  0.252249
  0.089381
  0.213531
  0.348218
  0.193227
  0.140183
  0.222273
  0.114179
  0.197426
  0.332484
  0.136952
  0.348657
  0.166386
  0.245774
  0.220857
  0.277037
  0.223303
  0.350068
  0.173022
  0.190110
  0.300033
  0.346123
  0.344907
  0.195650
  0.254852
  0.252091
  0.280285
  0.222077
  0.345866
  0.318029
  0.233384
  0.311197
  0.375843
  0.275138
  0.358073
  0.290320
  0.245483
  0.320092
  0.257896
  0.367879
  0.338886
  0.343078
  0.282262
  0.452361
  0.266494
  0.376843
  0.335555
  0.267279
  0.341908
  0.361500
  0.421491
  0.351890
  0.256436
  0.375911
  0.261100
  0.504056
  0.364994
  0.375050
  0.367559
  0.357024
  0.325516
  0.347591
  0.184112
  0.170399
  0.402608
  0.356944
  0.402526
  0.414686
  0.350068
  0.378511
  0.713926
  0.525839
  0.379309
  0.383647
  0.217163
  0.297757
  0.369465
  0.396321
  0.374944
  0.431046
  0.422560
  0.411723
  0.397172
  0.459691
  0.407340
  0.370152
  0.195939
  0.422854
  0.527045
  0.458503
  0.416611
  0.275844
  0.443721
  0.483362
  0.497593
  0.217154
  0.467976
  0.404496
  0.455011
  0.529413
  0.494475
  0.464462
  0.488255
  0.515079
  0.523555
  0.444730
  0.515295
  0.474304
  0.502512
  0.500432
  0.533571
  0.512050
  0.496041
  0.517915
  0.492647
  0.541499
  0.548127
  0.522253
  0.509023
  0.534338
  0.521698
  0.553691
  0.537742
  0.525428
  0.531185
  0.545860
  0.533934
  0.565193
  0.568392
  0.540009
  0.555905
  0.559622
  0.571133
  0.557980
  0.546544
  0.560152
  0.554334
  0.570270
  0.586601
  0.588696
  0.566903
  0.586389
  0.582686
  0.589346
  0.582236
  0.567070
  0.576434
  0.567976
  0.586581
  0.615015
  0.605987
  0.604527
  0.611705
  0.606301
  0.603892
  0.598512
  0.598566
  0.585201
  0.613230
  0.615451
  0.626110
  0.620181
  0.627039
  0.620113
  0.694867
  0.635220
  0.630215
  0.635321
  0.659890
  0.648437
  0.647344
  0.642947
  0.641225
  0.651235
  0.651039
  0.609344
  0.676506
  0.647180
  0.690569
  0.665252
  0.670627
  0.652290
  0.689596
  0.663148
  0.665661
  0.653504
  0.686904
  0.677471
  0.713896
  0.709236
  0.671852
  0.652042
  0.764889
  0.683545
  0.669365
  0.705243
  0.718664
  0.631370
  0.656137
  0.804796
  0.709526
  0.837950
  0.703004
  0.743281
  0.725375
  0.623732
  0.731655
  0.717373
  0.825143
  0.691187
  0.890675
  0.772203
  0.556158
  0.666445
  0.742151
  0.696116
  0.691607
  0.581565
  0.675443
  0.572000
  0.712093
  0.757806
  0.518802
  0.725053
  0.747034
  0.695403
  0.734152
  0.656807
  0.800628
  0.607943
  0.709390
  0.729947
  0.750986
  0.741787
  0.665267
  0.752869
  0.729061
  0.677325
  0.359178
  0.763075
  0.737647
  0.759020
  0.753755
  0.756677
  0.757871
  0.722966
  0.756478
  0.679646
  0.843790
  0.752208
  0.741322
  0.595362
  0.753879
  0.729438
  0.726793
  0.757630
  0.758605
  0.759424
  0.733619
  0.760392
  0.491234
  0.728908
  0.774406
  0.759448
  0.384332
  0.798173
  0.722727
  0.758196
  0.777888
  0.752261
  0.712752
  0.746162
  0.694689
  0.765504
  0.741837
  0.766297
  0.740603
  0.739711
  0.765560
  0.640899
  0.758614
  0.735111
  0.768238
  0.761025
  0.768748
  0.769892
  0.727746
  0.742653
  0.759538
  0.704356
  0.752859
  0.767131
  0.702642
  0.767483
  0.772654
  0.771510
  0.752109
  0.745731
  0.754556
  0.761348
  0.779263
  0.768156
  0.751648
  0.775283
  0.727865
  0.741739
  0.778929
  0.754808
  0.773699
  0.729303
  0.762628
  0.768744
  0.792259
  0.773805
  0.728506
  0.780303
  0.778326
  0.756670
  0.782735
  0.765201
  0.787915
  0.770800
  0.746487
  0.778932
  0.775840
  0.782103
  0.846706
  0.761050
  0.784143
  0.648310
  0.766706
  0.861679
  0.772424
  0.763965
  0.777391
  0.791484
  0.937938
  0.781655
  0.784365
  0.749024
  0.786632
  0.769187
  0.787182
  0.775379
  0.779286
  0.822654
  0.771035
  0.786344
  0.784207
  0.789114
  0.790476
  0.823557
  0.786435
  0.778234
  0.782506
  0.777808
  0.786078
  0.796308
  0.789300
  0.791609
  0.779677
  0.794020
  0.945530
  0.793526
  0.785977
  0.788735
  0.783724
  0.787001
  0.794189
  0.792565
  0.791805
  0.795958
  0.798120
  0.810098
  0.790438
  0.792697
  0.738231
  0.794935
  0.792022
  0.798604
  0.797528
  0.805462
  0.799154
  0.800009
  0.756736
  0.800011
  0.796675
  0.796480
  0.798709
  0.770002
  0.800513
  0.799852
  0.801900
  0.803320
  0.852652
  0.803447
  0.833883
  0.804885
  0.801716
  0.802569
  0.803987
  0.900556
  0.804782
  0.806223
  0.799972
  0.805958
  0.812973
  0.807371
  0.806175
  0.806693
  0.807742
  0.807785
  0.809123
  0.801978
  0.809571
  0.809930
  0.771931
  0.810790
  0.810346
  0.863031
  0.808530
  0.812024
  0.812067
  0.812971
  0.813937
  0.815667
  0.814104
  0.806304
  0.835604
  0.832855
  0.814139
  0.818715
  0.812867
  0.833349
  0.815886
  0.816896
  0.818957
  0.817976
  0.820407
  0.817638
  0.818267
  0.842882
  0.858547
  0.817927
  0.817057
  0.821127
  0.820471
  0.822572
  0.821993
  0.822249
  0.826901
  0.817974
  0.810144
  0.821514
  0.821846
  0.824851
  0.825937
  0.825425
  0.826910
  0.825747
  0.826880
  0.836833
  0.753216
  0.825131
  0.833299
  0.828478
  0.824415
  0.830084
  0.831024
  0.831877
  0.831580
  0.830672
  0.827983
  0.823511
  0.829106
  0.802945
  0.826939
  0.833412
  0.832714
  0.834872
  0.836114
  0.835225
  0.834098
  0.831621
  0.824220
  0.828298
  0.831686
  0.840376
  0.836447
  0.838523
  0.816812
  0.840195
  0.833497
  0.840994
  0.747763
  0.839285
  0.826810
  0.820796
  0.837206
  0.833962
  0.839220
  0.819379
  0.841758
  0.845242
  0.843945
  0.845705
  0.844343
  0.843378
  0.830932
  0.830308
  0.888844
  0.833559
  0.839369
  0.844095
  0.847368
  0.849317
  0.841953
  0.850686
  0.705791
  0.848623
  0.837552
  0.839667
  0.830634
  0.845771
  0.846052
  0.850524
  0.853282
  0.855695
  0.854163
  0.817576
  0.852885
  0.846079
  0.835369
  0.821583
  0.852717
  0.856402
  0.859071
  0.846893
  0.861313
  0.838121
  0.858427
  0.842513
  0.847250
  0.829505
  0.854756
  0.844533
  0.859040
  0.853999
  0.862538
  0.866005
  0.843293
  0.864490
  0.823161
  0.848111
  0.863290
  0.819820
  0.854561
  0.836712
  0.865608
  0.861381
  0.869443
  0.872598
  0.851464
  0.862535
  0.868825
  0.830544
  0.866029
  0.844679
  0.861369
  0.868312
  0.872196
  0.877498
  0.875960
  0.966819
  0.828697
  0.874037
  0.862531
  0.839847
  0.855139
  0.847695
  0.879936
  0.874434
  0.870909
  0.965595
  0.851743
  0.885703
  0.858404
  0.868035
  0.880385
  0.833456
  0.876429
  0.872431
  0.881783
  0.876237
  0.889697
  0.889562
  0.907611
  0.886043
  0.871523
  0.817685
  0.875561
  0.860284
  0.882768
  0.877186
  0.891317
  0.852106
  0.899678
  0.783947
  0.880277
  0.894175
  0.835933
  0.889620
  0.871143
  0.883450
  0.891114
  0.878017
  0.903430
  0.813349
  0.908432
  0.904712
  0.901368
  0.886725
  0.888017
  0.836675
  0.868053
  0.890671
  0.883808
  0.857130
  0.901688
  0.936420
  0.916766
  0.878356
  0.909766
  0.859273
  0.904063
  0.882367
  0.862417
  0.889630
  0.899677
  0.882800
  0.916210
  0.924569
  0.890175
  0.853729
  0.915749
  0.879886
  0.898738
  0.875623
  0.855711
  0.911301
  0.897135
  0.887842
  0.934630
  0.877357
  0.884386
  0.928824
  0.725836
  0.917449
  0.852429
  0.890489
  0.867790
  0.894245
  0.907068
  0.928231
  0.885400
  0.854508
  0.946766
  0.933027
  0.909762
  0.884556
  0.881658
  0.901938
  0.889676
  0.859086
  0.920283
  0.686240
  0.913126
  0.951175
  0.885112
  0.948343
  0.933111
  0.847834
  0.898123
  0.885177
  0.871365
  0.896512
  0.912486
  0.939729
  0.892625
  0.966275
  0.951071
  0.846711
  0.920577
  0.891006
  0.890714
  0.886510
  0.856784
  0.904554
  0.926974
  0.886660
  0.964942
  0.879525
  0.829561
  0.969871
  0.947084
  0.830656
  0.904567
  0.872322
  0.896070
  0.915004
  0.947170
  0.982719
  0.831307
  0.969197
  0.931485
  0.886397
  0.877946
  0.850419
  0.903223
  0.886321
  0.929782
  0.896229
  0.973209
  0.986995
  0.878600
  0.823393
  0.961498
  0.824096
  0.908303
  0.865816
  0.891093
  0.913601
  0.950785
  0.871264
  0.994500
  0.985816
  0.904607
  0.800254
  0.938243
  0.868277
  0.883981
  0.898543
  0.878755
  0.927568
  0.975858
  0.840437
  1.000772
  0.875178
  0.738671
  0.971035
  0.806158
  0.909773
  0.883930
  0.907754
  0.946737
  0.859775
  1.002963
  0.787084
  0.994501
  0.942716
  0.865021
  0.879043
  0.825752
  0.889696
  0.869166
  0.920146
  0.971802
  0.854477
  1.010936
  0.863491
  0.971772
  0.803768
  0.835293
  0.904601
  0.819863
  0.853578
  0.873528
  0.896435
  0.937995
  0.999732
  0.996671
  0.817387
  0.804930
  0.935076
  0.856910
  0.861977
  0.865960
  0.826299
  0.877038
  0.853141
  0.905457
  0.963441
  0.851049
  1.006369
  0.811624
  0.964290
  0.890077
  0.801611
  0.846404
  0.832411
  0.857491
  0.878846
  0.919218
  0.995851
  0.799988
  0.841123
  0.979105
  0.809419
  0.916157
  0.845239
  0.805627
  0.855935
  0.883914
  0.937372
  0.840577
  1.000189
  0.732219
  0.930085
  0.863762
  0.519750
  0.785622
  0.810420
  0.854243
  0.837761
  0.892908
  0.969479
  0.781246
  0.949386
  0.877294
  0.825442
  0.810559
  0.779607
  0.908129
  0.779756
  0.833100
  0.851093
  0.820399
  0.963797
  0.822566
  0.885897
  0.735740
  0.815535
  0.769662
  0.774305
  0.808122
  0.759004
  0.814472
  0.822906
  0.921770
  0.847340
  0.896347
  0.818984
  0.805890
  0.751101
  0.758929
  0.744683
  0.802928
  0.808606
  0.800253
  0.837203
  0.800791
  0.911776
  0.820251
  0.752712
  0.727381
  0.742069
  0.729220
  0.786959
  0.785841
  0.825259
  0.789234
  0.848472
  0.726581
  0.792709
  0.741435
  0.688433
  0.705225
  0.770637
  0.760846
  0.779666
  0.743210
  0.718399
  0.777498
  0.692867
  0.647577
  0.722014
  0.672497
  0.697469
  0.737525
  0.764228
  0.759794
  0.743571
  0.728274
  0.684160
  0.620536
  0.733966
  0.772845
  0.790967
  0.657497
  0.668692
  0.800166
  0.670294
  0.548545
  0.693036
  0.739467
  0.701737
  0.755160
  0.551947
  0.699474
  0.667331
  0.605371
  0.523934
  0.772405
  0.735547
  0.500182
  0.706510
  0.631680
  0.748600
  0.771537
  0.497683
  0.698393
  0.634360
  0.537637
  0.671641
  0.708532
  0.659798
  0.737949
  0.376254
  0.383087
  0.681775
  0.714844
  0.297998
  0.641640
  0.477385
  0.329081
  0.669670
  0.589820
  0.384939
  0.544623
  0.736906
  0.602566
  0.658980
  0.671361
  0.774382
  0.179206
  0.202097
  0.681969
  0.710374
  0.619007
  0.480224
  0.221625
  0.346972
  0.163912
  0.701064
  0.200578
  0.832155
  0.669801
  0.457854
  0.625162
  0.642320
  0.554718
  0.547168
  0.180149
  0.188812
  0.361761
  0.199782
  0.718191
  0.659395
  0.193912
  0.739876
  0.280326
  0.656653
  0.286403
  0.694928
  0.595148
  0.472350
  0.334310
  0.663715
  0.357653
  0.508844
  0.688699
  0.405780
  0.631692
  0.369248
  0.764458
  0.401120
  0.629788
  0.591417
  0.537329
  0.379351
  0.706261
  0.412346
  0.681528
  0.655774
  0.729128
  0.415744
  0.428612
  0.717747
  0.545376
  0.680203
  0.592696
  0.485461
  0.494545
  0.625353
  0.741989
  0.419891
  0.457360
  0.706864
  0.651708
  0.452603
  0.442326
  0.471346
  0.467424
  0.599220
  0.550060
  0.689443
  0.660645
  0.723837
  0.624020
  0.461708
  0.520343
  0.705247
  0.568616
  0.502839
  0.674872
  0.493171
  0.522248
  0.635786
  0.668456
  0.597525
  0.532846
  0.710344
  0.497222
  0.648560
  0.512160
  0.511368
  0.611164
  0.507699
  0.512648
  0.575082
  0.692081
  0.664433
  0.630787
  0.742265
  0.523049
  0.579231
  0.516872
  0.669399
  0.557711
  0.553547
  0.647585
  0.613300
  0.811064
  0.523800
  0.711290
  0.655288
  0.691647
  0.571500
  0.560155
  0.563985
  0.630273
  0.599171
  0.746254
  0.747302
  0.578908
  0.575252
  0.681473
  0.675486
  0.642789
  0.577210
  0.603319
  0.676860
  0.888591
  0.598419
  0.584527
  0.589416
  0.797693
  0.666958
  0.631772
  0.596565
  0.707269
  0.762545
  0.665939
  0.598374
  0.704185
  0.684991
  0.663525
  0.623853
  0.677806
  0.598041
  0.617585
  0.616983
  0.693528
  0.658574
  0.714417
  0.608396
  0.633663
  0.615719
  0.681617
  0.614936
  0.696219
  0.654069
  0.663763
  0.612173
  0.615718
  0.708501
  0.677215
  0.622374
  0.621435
  0.716198
  0.633352
  0.684745
  0.651347
  0.700323
  0.718289
  0.661262
  0.627129
  0.712586
  0.675333
  0.656535
  0.704373
  0.694813
  0.626983
  0.659898
  0.648446
  0.713611
  0.675357
  0.754165
  0.692439
  0.643225
  0.653588
  0.740221
  0.855255
  0.665616
  0.711855
  0.677220
  0.679335
  0.711545
  0.738921
  0.695112
  0.667586
  0.763212
  0.673606
  0.702141
  0.705128
  0.703346
  0.676530
  0.755972
  0.751334
  0.674159
  0.700061
  0.726345
  0.787989
  0.709388
  0.763976
  0.757795
  0.740301
  0.690133
  0.756704
  0.760344
  0.706565
  0.724205
  0.815170
  0.784542
  0.714366
  0.770180
  0.767551
  0.652679
  0.713601
  0.707513
  0.722275
  0.776687
  0.721000
  0.715625
  0.781134
  0.779054
  0.722911
  0.727140
  0.722935
  0.785981
  0.784723
  0.786586
  0.775621
  0.734670
  0.731452
  0.740501
  0.796290
  0.799887
  0.732952
  0.804094
  0.763131
  0.726500
  0.798628
  0.800641
  0.751514
  0.805807
  0.822620
  0.745709
  0.729324
  0.770129
  0.765896
  0.807338
  0.738700
  0.811973
  0.799915
  0.775944
  0.820943
  0.731973
  0.819189
  0.701160
  0.761508
  0.840672
  0.754651
  0.789677
  0.795015
  0.750430
  0.824060
  0.814845
  0.740915
  0.781900
  0.776385
  0.805258
  0.849264
  0.854015
  0.774649
  0.756490
  0.863959
  0.811761
  0.839460
  0.803054
  0.807434
  0.881799
  0.811105
  0.735696
  0.797668
  0.900286
  0.864599
  0.776640
  0.789539
  0.838304
  0.753486
  0.834905
  0.824605
  0.915490
  0.770927
  0.850243
  0.803149
  0.721651
  0.922565
  0.670688
  0.860952
  0.872393
  0.811259
  0.910418
  0.909940
  0.878569
  0.833837
  0.943860
  0.833438
  0.750085
  0.913667
  0.919822
  0.937816
  0.798042
  0.803465
  0.776060
  0.867415
  0.870185
  0.934162
  0.926093
  0.839020
  0.758892
  0.955550
  0.909478
  0.948659
  0.745046
  0.952521
  0.824352
  0.914296
  0.855283
  0.957534
  0.758104
  0.884637
  0.940355
  0.950076
  0.805408
  0.820180
  0.930003
  0.785049
  0.895782
  0.982282
  0.938405
  1.005077
  0.863028
  0.984193
  1.034940
  0.949358
  1.034681
  0.834828
  0.991089
  1.020364
  1.061829
  0.873293
  0.910788
  0.776906
  1.017925
  0.720405
  0.840621
  1.047529
  0.808566
  1.085746
  0.797908
  0.924751
  1.096134
  0.971817
  0.672946
  1.117405
  1.084527
  0.891554
  0.994306
  0.754747
  1.132003
  0.828351
  1.093768
  1.146313
  0.787591
  1.143137
  0.885746
  1.156939
  0.951244
  1.156611
  0.714203
  1.078975
  0.854104
  0.785568
  0.804127
  0.950048
  1.185923
  0.454959
  1.163762
  1.031446
  0.740248
  1.208172
  1.216412
  0.908158
  1.034978
  0.796888
  1.229615
  1.209060
  1.221790
  0.880426
  0.778945
  1.266221
  0.979434
  1.159563
  0.751550
  1.240372
  1.290761
  0.844750
  1.167544
  0.805450
  0.966805
  1.270376
  1.076561
  0.819365
  1.317520
  0.913295
  1.073867
  1.314027
  0.752870
  1.347010
  1.280946
  0.755003
  0.876996
  1.176328
  0.984988
  1.334418
  0.771784
  1.332776
  1.203328
  1.377960
  0.682669
  1.356498
  0.786783
  0.966179
  1.393485
  1.080364
  0.827903
  0.781465
  1.353745
  0.726957
  1.084351
  1.424908
  0.886531
  0.690285
  1.370477
  0.962078
  0.835025
  1.332909
  1.218575
  0.752180
  1.416886
  1.231543
  1.390946
  1.360858
  0.638899
  1.442251
  0.759292
  0.920977
  1.371720
  0.781653
  1.017244
  1.414100
  0.700538
  0.604923
  0.584494
  1.031396
  0.601170
  1.220276
  1.336056
  0.850843
  1.424915
  0.738886
  0.698662
  1.335913
  0.256453
  1.161100
  1.291386
  1.368302
  0.565364
  1.024008
  0.680129
  1.286264
  0.799189
  1.333725
  0.580100
  0.709271
  1.367156
  1.261787
  1.299241
  0.815548
  0.878916
  1.072667
  0.415503
  0.473079
  0.551210
  1.172026
  0.613151
  1.268234
  1.126734
  0.645695
  1.149127
  1.045433
  0.811789
  0.381818
  0.568383
  0.532700
  0.953755
  0.380287
  0.999121
  1.079075
  0.553975
  0.515546
  0.580159
  0.908765
  0.749213
  0.494901
  0.300730
  0.917377
  0.507842
  0.237240
  0.740990
  0.231122
  0.859728
  0.417398
  0.458849
  0.393901
  0.423507
  0.075833
  0.647228
  0.592618
  0.598760
  0.285307
  0.037104
  0.477347
  -0.091100
  0.327362
  0.347070
  0.466312
  0.221743
  0.216525
  0.141462
  0.324785
  -0.271305
  0.369561
  0.190376
  -0.154210
  -0.042286
  0.328571
  0.368162
  0.143195
  0.082926
  0.178564
  -0.647580
  0.261052
  0.045838
  -0.083644
  -0.423398
  -0.297756
  -0.316832
  -0.340418
  -0.151315
  -0.956371
  0.103649
  -0.321727
  0.689088
  -0.067192
  -0.467963
  -0.976867
  0.267319
  -0.526398
  -0.408151
  -0.812259
  0.303589
  -1.170048
  0.081945
  -0.915038
  -0.192248
  -1.508896
  0.064885
  -0.837763
  -0.957894
  -1.027222
  -0.693667
  -0.987863
  0.542348
  -1.828629
  -0.146713
  -1.310270
  -0.229671
  -1.745771
  0.076035
  -1.258704
  -1.467799
  -1.299701
  -1.440950
  -1.405295
  -0.580706
  -2.272057
  0.027637
  -0.100475
  -0.783541
  -1.697755
  0.328376
  -2.175789
  -1.615450
  -1.635314
  -1.246619
  -2.000133
  -1.773431
  -0.357321
  -1.735610
  -0.404778
  -1.950225
  -2.334634
  0.017512
  -1.962473
  -1.266760
  -1.844116
  -2.013595
  -0.985208
  -2.580533
  -0.269399
  -0.077175
  -1.906427
  -0.900002
  -2.241046
  -2.006780
  0.126385
  -2.071025
  -1.798168
  -0.669568
  -2.315219
  -1.952070
  -2.054260
  0.506823
  -2.482555
  -0.092061
  -0.521482
  -2.467953
  -2.028347
  -1.990922
  -1.575713
  -2.410780
  -2.017335
  -0.405242
  -0.920132
  -2.086515
  -1.324708
  0.385743
  -0.163520
  -2.460853
  -2.337206
  -2.093655
  -1.946079
  1.131768
  -2.097663
  -2.084162
  -2.046134
  -0.755944
  -2.317977
  -2.078511
  -2.079757
  0.297092
  -1.940237
  -1.912021
  -2.235944
  -2.161292
  -2.082276
  -2.034027
  -0.618151
  -2.326171
  -2.085546
  0.689554
  -2.025482
  -2.409306
  -0.136104
  -1.880317
  -2.040396
  -2.136193
  -1.866868
  -1.905643
  -2.030841
  -2.289342
  -2.138524
  -1.871608
  -2.159282
  -2.329829
  -2.135515
  -0.223280
  -1.278799
  -1.854370
  -2.277901
  -0.547076
  -2.298587
  -2.139504
  -2.047614
  -2.305836
  -1.076417
  -2.124659
  -2.319931
  -1.728246
  -2.122043
  -2.355905
  -2.427873
  -2.354736
  -2.332211
  -2.314608
  -2.360375
  -2.333359
  -2.361020
  -2.322889
  -0.642649
  -2.362269
  -2.331890
  -2.373083
  -2.327622
  -0.226634
  -2.488764
  -2.348675
  -0.661754
  -0.191018
  -2.388240
  -2.540240
  -1.448768
  -1.346943
  -2.171369
  -2.472456
  -2.381973
  -2.612328
  -2.390377
  -2.557517
  -2.479280
  -2.371174
  -2.554906
  0.224331
  0.246845
  -0.645281
  -2.544502
  -0.264629
  -2.929568
  -2.650652
  -2.992680
  -2.621130
  -2.606338
  -3.051850
  -3.051059
  -2.689618
  -0.201054
  -3.027784
  -0.677014
  0.968477
  -2.618809
  -1.179244
  -2.412553
  -1.517742
  -3.060182
  0.545551
  -3.189837
  -3.428295
  -3.159531
  -3.171857
  -3.564474
  -3.667968
  -3.662830
  -0.491334
  0.644945
  -0.299329
  -3.187400
  -3.321645
  -1.082607
  -0.724848
  1.129049
  0.033142
  -2.407006
  -1.380512
  -3.609720
  -3.818912
  -3.808196