# vtk DataFile Version 2.0
FSI_Simulation
ASCII

DATASET UNSTRUCTURED_GRID
POINTS 2042 double
  2.500000  0.410000  0.000000
  2.450000  0.410000  0.000000
  2.500000  0.358750  0.000000
  2.455000  0.345150  0.000000
  2.400000  0.410000  0.000000
  2.500000  0.307500  0.000000
  2.409170  0.352960  0.000000
  2.425000  0.303110  0.000000
  2.350000  0.410000  0.000000
  2.359860  0.354270  0.000000
  2.500000  0.256250  0.000000
  2.450000  0.259810  0.000000
  2.375000  0.303110  0.000000
  2.400000  0.259810  0.000000
  2.300000  0.410000  0.000000
  2.500000  0.205000  0.000000
  2.325000  0.303110  0.000000
  2.425000  0.216510  0.000000
  2.300000  0.346410  0.000000
  2.350000  0.259810  0.000000
  2.375000  0.216510  0.000000
  2.450000  0.173210  0.000000
  2.275000  0.303110  0.000000
  2.250000  0.410000  0.000000
  2.300000  0.259810  0.000000
  2.500000  0.153750  0.000000
  2.400000  0.173210  0.000000
  2.250000  0.346410  0.000000
  2.325000  0.216510  0.000000
  2.350000  0.173210  0.000000
  2.429170  0.133880  0.000000
  2.250000  0.259810  0.000000
  2.225000  0.303110  0.000000
  2.275000  0.216510  0.000000
  2.200000  0.410000  0.000000
  2.197270  0.363510  0.000000
  2.375000  0.129900  0.000000
  2.500000  0.102500  0.000000
  2.300000  0.173210  0.000000
  2.450000  0.086600  0.000000
  2.325000  0.129900  0.000000
  2.200000  0.259810  0.000000
  2.225000  0.216510  0.000000
  2.400000  0.086600  0.000000
  2.250000  0.173210  0.000000
  2.170490  0.306770  0.000000
  2.150000  0.410000  0.000000
  2.350000  0.086600  0.000000
  2.500000  0.051250  0.000000
  2.275000  0.129900  0.000000
  2.135420  0.358250  0.000000
  2.429170  0.044630  0.000000
  2.175000  0.216510  0.000000
  2.300000  0.086600  0.000000
  2.150000  0.259810  0.000000
  2.200000  0.173210  0.000000
  2.375000  0.043300  0.000000
  2.225000  0.129900  0.000000
  2.112500  0.313250  0.000000
  2.100000  0.410000  0.000000
  2.325000  0.043300  0.000000
  2.250000  0.086600  0.000000
  2.500000  0.000000  0.000000
  2.450000  0.000000  0.000000
  2.125000  0.216510  0.000000
  2.400000  0.000000  0.000000
  2.150000  0.173210  0.000000
  2.075000  0.366700  0.000000
  2.175000  0.129900  0.000000
  2.275000  0.043300  0.000000
  2.087500  0.269950  0.000000
  2.350000  0.000000  0.000000
  2.200000  0.086600  0.000000
  2.050000  0.410000  0.000000
  2.300000  0.000000  0.000000
  2.050000  0.323400  0.000000
  2.225000  0.043300  0.000000
  2.100000  0.173210  0.000000
  2.125000  0.129900  0.000000
  2.062500  0.226650  0.000000
  2.150000  0.086600  0.000000
  2.025000  0.366700  0.000000
  2.250000  0.000000  0.000000
  2.175000  0.043300  0.000000
  2.025000  0.280100  0.000000
  2.000000  0.410000  0.000000
  2.000000  0.323400  0.000000
  2.200000  0.000000  0.000000
  2.070830  0.133290  0.000000
  2.100000  0.086600  0.000000
  2.037500  0.183350  0.000000
  2.125000  0.043300  0.000000
  1.975000  0.366700  0.000000
  2.000000  0.236790  0.000000
  2.150000  0.000000  0.000000
  1.975000  0.280100  0.000000
  1.950000  0.410000  0.000000
  2.050000  0.086600  0.000000
  1.950000  0.323400  0.000000
  2.012500  0.140050  0.000000
  2.075000  0.043300  0.000000
  1.975000  0.193490  0.000000
  2.100000  0.000000  0.000000
  1.925000  0.366700  0.000000
  1.950000  0.236790  0.000000
  1.925000  0.280100  0.000000
  2.000000  0.086600  0.000000
  1.900000  0.410000  0.000000
  2.025000  0.043300  0.000000
  1.900000  0.323400  0.000000
  1.950000  0.150190  0.000000
  2.050000  0.000000  0.000000
  1.925000  0.193490  0.000000
  1.900000  0.236790  0.000000
  1.875000  0.366700  0.000000
  1.875000  0.280100  0.000000
  1.975000  0.043300  0.000000
  1.937500  0.096750  0.000000
  2.000000  0.000000  0.000000
  1.850000  0.410000  0.000000
  1.902380  0.145780  0.000000
  1.850000  0.323400  0.000000
  1.875000  0.193490  0.000000
  1.850000  0.236790  0.000000
  1.820830  0.365370  0.000000
  1.925000  0.043300  0.000000
  1.950000  0.000000  0.000000
  1.800000  0.410000  0.000000
  1.850000  0.150190  0.000000
  1.877180  0.088810  0.000000
  1.810710  0.280600  0.000000
  1.800000  0.323400  0.000000
  1.820830  0.195410  0.000000
  1.800000  0.236790  0.000000
  1.900000  0.000000  0.000000
  1.875360  0.035430  0.000000
  1.825000  0.106890  0.000000
  1.800000  0.150190  0.000000
  1.750000  0.410000  0.000000
  1.750000  0.358750  0.000000
  1.750000  0.307500  0.000000
  1.750000  0.256250  0.000000
  1.825000  0.043300  0.000000
  1.850000  0.000000  0.000000
  1.750000  0.205000  0.000000
  1.793300  0.076870  0.000000
  1.750000  0.153750  0.000000
  1.700640  0.410000  0.000000
  1.704300  0.327190  0.000000
  1.750000  0.102500  0.000000
  1.800000  0.000000  0.000000
  1.706240  0.242410  0.000000
  1.676060  0.366700  0.000000
  1.679550  0.284150  0.000000
  1.704500  0.168810  0.000000
  1.750000  0.051250  0.000000
  1.682040  0.198780  0.000000
  1.655740  0.327710  0.000000
  1.651490  0.410000  0.000000
  1.750000  0.000000  0.000000
  1.656690  0.241750  0.000000
  1.703750  0.082910  0.000000
  1.678980  0.125940  0.000000
  1.627030  0.366700  0.000000
  1.631170  0.284620  0.000000
  1.654610  0.169080  0.000000
  1.632070  0.198270  0.000000
  1.607330  0.328120  0.000000
  1.602560  0.410000  0.000000
  1.700280  0.000000  0.000000
  1.675600  0.043300  0.000000
  1.655160  0.082380  0.000000
  1.606810  0.241470  0.000000
  1.630810  0.125620  0.000000
  1.578220  0.366700  0.000000
  1.582990  0.284920  0.000000
  1.604730  0.168150  0.000000
  1.578920  0.210800  0.000000
  1.650920  0.000000  0.000000
  1.559000  0.328320  0.000000
  1.553870  0.410000  0.000000
  1.626430  0.043300  0.000000
  1.606660  0.082260  0.000000
  1.556930  0.242380  0.000000
  1.582820  0.125810  0.000000
  1.529630  0.366700  0.000000
  1.534940  0.284960  0.000000
  1.555320  0.166880  0.000000
  1.601940  0.000000  0.000000
  1.530950  0.199810  0.000000
  1.577650  0.043300  0.000000
  1.510670  0.328200  0.000000
  1.505400  0.410000  0.000000
  1.558080  0.082770  0.000000
  1.534730  0.126670  0.000000
  1.507460  0.243800  0.000000
  1.481280  0.366700  0.000000
  1.486910  0.284640  0.000000
  1.506480  0.166500  0.000000
  1.553350  0.000000  0.000000
  1.529250  0.043300  0.000000
  1.482130  0.200990  0.000000
  1.462240  0.327690  0.000000
  1.457160  0.410000  0.000000
  1.509220  0.083990  0.000000
  1.486020  0.128110  0.000000
  1.458500  0.244760  0.000000
  1.433170  0.366700  0.000000
  1.438620  0.283990  0.000000
  1.458930  0.158770  0.000000
  1.505150  0.000000  0.000000
  1.481250  0.043300  0.000000
  1.434180  0.201480  0.000000
  1.459870  0.085670  0.000000
  1.413590  0.326890  0.000000
  1.409170  0.410000  0.000000
  1.409940  0.244800  0.000000
  1.385300  0.366700  0.000000
  1.389560  0.283370  0.000000
  1.409090  0.158420  0.000000
  1.457350  0.000000  0.000000
  1.433650  0.043300  0.000000
  1.386550  0.201040  0.000000
  1.410050  0.086600  0.000000
  1.364750  0.326450  0.000000
  1.361420  0.410000  0.000000
  1.361460  0.243860  0.000000
  1.337670  0.366700  0.000000
  1.409950  0.000000  0.000000
  1.338650  0.284240  0.000000
  1.386460  0.043300  0.000000
  1.354150  0.119670  0.000000
  1.313920  0.410000  0.000000
  1.316290  0.328550  0.000000
  1.332940  0.164270  0.000000
  1.312360  0.242750  0.000000
  1.362970  0.000000  0.000000
  1.290300  0.366700  0.000000
  1.295390  0.283330  0.000000
  1.339680  0.043300  0.000000
  1.325730  0.078680  0.000000
  1.304410  0.123360  0.000000
  1.266670  0.410000  0.000000
  1.266740  0.323400  0.000000
  1.272670  0.239000  0.000000
  1.283210  0.168120  0.000000
  1.316400  0.000000  0.000000
  1.243180  0.366700  0.000000
  1.246180  0.281190  0.000000
  1.293330  0.043300  0.000000
  1.277840  0.081590  0.000000
  1.256410  0.126460  0.000000
  1.219690  0.410000  0.000000
  1.219750  0.323400  0.000000
  1.233390  0.170720  0.000000
  1.222230  0.237350  0.000000
  1.270260  0.000000  0.000000
  1.196320  0.366700  0.000000
  1.247400  0.043300  0.000000
  1.196390  0.280100  0.000000
  1.229040  0.084940  0.000000
  1.205650  0.129050  0.000000
  1.189490  0.207370  0.000000
  1.172960  0.410000  0.000000
  1.173020  0.323400  0.000000
  1.224540  0.000000  0.000000
  1.181510  0.158020  0.000000
  1.201900  0.043300  0.000000
  1.149720  0.366700  0.000000
  1.179360  0.086600  0.000000
  1.143430  0.291070  0.000000
  1.144660  0.247780  0.000000
  1.126490  0.410000  0.000000
  1.142770  0.189580  0.000000
  1.179250  0.000000  0.000000
  1.134770  0.140320  0.000000
  1.156830  0.043300  0.000000
  1.103400  0.366700  0.000000
  1.100860  0.316520  0.000000
  1.099450  0.268150  0.000000
  1.103580  0.220000  0.000000
  1.080300  0.410000  0.000000
  1.096330  0.172140  0.000000
  1.134410  0.000000  0.000000
  1.100760  0.105310  0.000000
  1.058360  0.324420  0.000000
  1.099400  0.056460  0.000000
  1.059350  0.282410  0.000000
  1.062400  0.233330  0.000000
  1.051490  0.361960  0.000000
  1.062400  0.206670  0.000000
  1.062400  0.140000  0.000000
  1.034380  0.410000  0.000000
  1.090000  0.000000  0.000000
  1.032380  0.305960  0.000000
  1.027830  0.333570  0.000000
  1.033760  0.246670  0.000000
  1.028220  0.281830  0.000000
  1.059860  0.078570  0.000000
  1.030770  0.220170  0.000000
  1.033760  0.193330  0.000000
  1.015410  0.368300  0.000000
  1.056850  0.040910  0.000000
  1.013850  0.293330  0.000000
  1.011380  0.313820  0.000000
  1.013850  0.280000  0.000000
  1.013850  0.266670  0.000000
  1.013850  0.240000  0.000000
  1.012290  0.252000  0.000000
  1.025480  0.152840  0.000000
  1.013850  0.226670  0.000000
  1.028350  0.124560  0.000000
  1.002130  0.333160  0.000000
  1.012290  0.214670  0.000000
  1.013850  0.200000  0.000000
  1.032380  0.094040  0.000000
  1.000000  0.300000  0.000000
  1.012290  0.188000  0.000000
  1.013850  0.173330  0.000000
[...]
POINT_DATA 2042
SCALARS pressure double
LOOKUP_TABLE default
  0.196882
  0.022268
  -0.060700
  -0.039454
  0.245867
  0.123228
  0.137754
  -0.001322
  -0.110595
  0.060441
  0.015959
  0.017208
  0.043277
  0.031618
  -0.288352
  -0.034159
  0.091993
  0.040525
  -0.075945
  0.102533
  0.087098
  0.049782
  0.222958
  0.425243
  0.156649
  0.028681
  0.080283
  0.181256
  0.130725
  0.116523
  0.047600
  0.134919
  0.109369
  0.143256
  0.307998
  0.321724
  0.104379
  -0.006237
  0.144992
  0.047735
  0.136520
  0.202416
  0.213928
  0.127846
  0.190744
  0.322877
  0.070645
  0.150928
  -0.029707
  0.173350
  0.227686
  0.136841
  0.222498
  0.177938
  0.258898
  0.209104
  0.160781
  0.196363
  0.257339
  0.360230
  0.162691
  0.198882
  -0.173372
  0.065380
  0.284456
  0.138268
  0.254911
  0.387650
  0.238119
  0.184156
  0.270511
  0.163620
  0.233449
  0.370794
  0.182475
  0.373460
  0.209309
  0.286570
  0.263691
  0.313412
  0.256475
  0.391503
  0.213949
  0.233423
  0.345948
  0.396291
  0.378310
  0.236316
  0.296498
  0.281274
  0.324521
  0.261951
  0.392693
  0.352877
  0.266049
  0.360351
  0.423616
  0.300089
  0.401085
  0.331958
  0.283662
  0.361253
  0.278956
  0.413091
  0.374693
  0.393356
  0.319184
  0.481785
  0.313309
  0.417294
  0.381905
  0.301484
  0.384016
  0.401845
  0.459770
  0.401080
  0.299154
  0.412474
  0.305721
  0.525806
  0.402093
  0.413760
  0.411566
  0.401054
  0.375338
  0.393902
  0.245737
  0.246064
  0.448081
  0.399859
  0.450721
  0.442213
  0.403309
  0.429282
  0.733222
  0.555821
  0.420325
  0.428226
  0.300136
  0.365378
  0.422004
  0.455926
  0.410529
  0.452835
  0.463697
  0.451298
  0.446082
  0.504571
  0.467305
  0.426548
  0.259891
  0.472406
  0.562893
  0.493267
  0.470315
  0.343083
  0.489419
  0.537102
  0.541794
  0.299980
  0.525700
  0.462838
  0.501379
  0.573007
  0.538194
  0.516676
  0.532020
  0.561247
  0.569591
  0.501258
  0.558877
  0.536680
  0.556790
  0.552187
  0.579559
  0.558374
  0.545705
  0.571483
  0.549972
  0.584712
  0.588156
  0.572169
  0.563814
  0.579974
  0.573601
  0.599153
  0.587530
  0.574645
  0.581320
  0.595124
  0.579991
  0.605896
  0.608533
  0.591144
  0.607171
  0.605823
  0.617094
  0.610714
  0.594835
  0.601355
  0.600775
  0.618926
  0.628709
  0.631323
  0.614983
  0.631451
  0.625940
  0.636424
  0.637368
  0.619322
  0.624396
  0.617323
  0.631828
  0.661253
  0.650930
  0.655770
  0.652102
  0.656190
  0.660396
  0.650789
  0.659397
  0.643911
  0.660451
  0.663334
  0.672844
  0.681626
  0.661384
  0.672968
  0.767509
  0.688996
  0.686036
  0.685104
  0.717606
  0.698202
  0.695152
  0.681248
  0.694863
  0.699571
  0.708197
  0.654653
  0.715269
  0.694399
  0.745647
  0.715921
  0.713020
  0.704667
  0.747796
  0.713843
  0.716023
  0.703237
  0.716109
  0.713125
  0.748241
  0.754433
  0.720427
  0.694917
  0.796149
  0.728266
  0.701818
  0.752875
  0.740171
  0.674014
  0.700405
  0.820568
  0.750606
  0.809871
  0.752059
  0.757415
  0.761701
  0.651666
  0.781235
  0.767379
  0.862554
  0.743138
  0.844692
  0.815507
  0.594901
  0.728680
  0.783792
  0.745203
  0.744335
  0.662914
  0.728425
  0.608352
  0.753957
  0.813496
  0.592464
  0.780365
  0.803909
  0.755376
  0.791008
  0.713127
  0.848530
  0.669984
  0.773095
  0.797241
  0.807647
  0.804385
  0.723648
  0.814454
  0.788507
  0.745968
  0.444485
  0.825395
  0.805431
  0.826169
  0.820747
  0.820242
  0.822249
  0.783688
  0.821380
  0.747390
  0.906943
  0.818070
  0.806588
  0.673196
  0.823056
  0.795647
  0.792585
  0.827290
  0.828947
  0.828949
  0.799318
  0.828813
  0.576372
  0.794695
  0.845257
  0.827796
  0.475013
  0.860874
  0.790050
  0.827056
  0.839684
  0.821245
  0.782509
  0.815180
  0.763408
  0.836360
  0.811160
  0.838797
  0.810217
  0.809479
  0.837796
  0.708886
  0.832891
  0.806275
  0.841580
  0.833170
  0.842439
  0.843674
  0.799333
  0.817766
  0.832473
  0.777141
  0.825362
  0.841236
  0.770792
  0.841795
  0.847962
  0.846752
  0.830258
  0.819659
  0.828651
  0.836176
  0.854541
  0.843845
  0.829024
  0.851854
  0.801187
  0.816449
  0.854828
  0.829646
  0.850562
  0.796263
  0.838754
  0.845698
  0.865079
  0.851356
  0.800620
  0.858236
  0.857015
  0.832672
  0.861511
  0.842812
  0.863964
  0.849235
  0.820960
  0.858309
  0.855138
  0.861991
  0.909617
  0.830764
  0.864180
  0.725567
  0.844934
  0.935413
  0.851976
  0.840563
  0.857902
  0.872520
  0.990653
  0.862816
  0.865987
  0.822948
  0.868418
  0.848530
  0.870723
  0.856047
  0.860955
  0.905817
  0.847503
  0.869267
  0.867206
  0.872567
  0.874043
  0.899722
  0.855684
  0.859890
  0.865512
  0.857555
  0.870295
  0.878988
  0.873960
  0.876769
  0.855353
  0.878980
  0.998444
  0.879927
  0.870192
  0.873997
  0.866943
  0.866470
  0.880700
  0.879333
  0.879033
  0.882797
  0.884490
  0.880231
  0.875897
  0.879351
  0.830635
  0.882855
  0.874577
  0.884457
  0.885871
  0.882542
  0.888020
  0.888132
  0.837228
  0.888841
  0.884564
  0.883061
  0.887871
  0.863358
  0.890796
  0.883185
  0.891986
  0.893719
  0.922236
  0.892679
  0.912969
  0.893649
  0.890908
  0.892915
  0.895861
  0.953650
  0.891445
  0.898582
  0.888036
  0.898111
  0.898697
  0.898964
  0.897160
  0.898376
  0.900641
  0.898356
  0.903288
  0.890348
  0.899431
  0.903869
  0.855834
  0.904993
  0.902740
  0.948715
  0.900792
  0.904952
  0.906262
  0.908853
  0.909782
  0.906149
  0.910434
  0.897038
  0.923381
  0.915530
  0.909182
  0.911506
  0.906687
  0.913210
  0.911511
  0.913716
  0.912452
  0.916429
  0.910936
  0.915644
  0.915981
  0.933968
  0.950779
  0.913986
  0.910512
  0.919126
  0.917402
  0.922422
  0.922283
  0.922644
  0.920822
  0.908820
  0.910354
  0.920687
  0.918226
  0.924247
  0.926911
  0.922854
  0.929692
  0.927825
  0.928865
  0.917000
  0.852432
  0.925032
  0.933061
  0.929188
  0.921492
  0.931993
  0.935742
  0.929390
  0.935920
  0.935438
  0.927267
  0.917113
  0.932558
  0.897771
  0.928645
  0.936622
  0.933719
  0.939934
  0.943821
  0.941382
  0.940762
  0.917822
  0.923579
  0.929158
  0.936521
  0.938837
  0.940866
  0.944179
  0.905967
  0.949608
  0.935876
  0.950237
  0.863493
  0.948701
  0.929578
  0.919497
  0.945566
  0.938129
  0.943991
  0.913582
  0.948776
  0.946476
  0.953323
  0.958552
  0.955473
  0.955341
  0.934817
  0.933385
  0.990903
  0.938733
  0.948884
  0.951847
  0.956847
  0.963372
  0.947330
  0.965443
  0.829416
  0.963350
  0.941379
  0.948285
  0.932562
  0.958255
  0.954070
  0.960975
  0.966602
  0.974607
  0.970885
  0.923982
  0.969647
  0.959049
  0.942759
  0.927570
  0.963519
  0.969448
  0.977681
  0.957059
  0.982728
  0.946762
  0.978512
  0.952532
  0.959635
  0.939484
  0.971783
  0.958459
  0.972487
  0.964728
  0.979490
  0.989899
  0.955953
  0.987875
  0.940184
  0.958953
  0.985068
  0.936219
  0.971192
  0.949929
  0.981818
  0.974050
  0.991958
  1.000603
  0.966731
  0.972983
  0.994680
  0.946435
  0.987622
  0.959308
  0.973994
  0.984198
  0.992270
  1.006794
  1.006023
  1.037118
  0.950283
  0.999873
  0.982596
  0.956041
  0.970772
  0.943794
  1.005554
  0.993313
  0.986045
  1.061563
  0.966212
  1.020038
  0.977197
  0.981960
  1.011457
  0.950905
  1.000473
  0.987680
  1.004065
  0.994584
  1.022126
  1.025521
  1.016687
  1.015455
  0.986513
  0.941023
  0.998173
  0.979662
  1.003821
  0.994102
  1.018721
  0.968425
  1.036433
  0.897725
  0.995147
  1.029890
  0.952261
  1.016283
  0.991491
  1.003117
  1.015005
  0.995052
  1.036307
  0.936671
  1.013706
  1.042488
  1.033980
  1.011058
  1.005095
  0.930839
  0.986815
  1.012855
  1.002032
  0.971271
  1.029404
  1.042846
  1.052188
  0.996814
  1.046851
  0.970811
  1.032681
  1.003316
  0.978877
  1.010073
  1.023864
  1.001843
  1.047052
  1.059966
  1.010337
  0.962365
  1.048947
  1.000634
  1.023966
  0.993703
  0.970635
  1.037676
  1.019436
  1.006536
  1.064704
  0.971278
  1.002830
  1.064900
  0.817351
  1.045929
  0.966147
  1.011473
  0.983366
  1.014606
  1.030304
  1.055199
  1.004409
  0.963508
  1.075934
  1.065433
  1.033828
  1.001269
  0.999053
  1.023454
  1.008037
  0.973092
  1.044165
  0.813029
  1.028347
  1.074556
  1.002900
  1.079707
  1.058948
  0.961845
  1.018248
  1.004006
  0.986197
  1.016341
  1.034449
  1.062563
  1.003359
  1.088089
  1.078737
  0.957246
  1.042431
  1.001224
  1.000753
  1.002666
  0.972535
  1.025322
  1.048818
  1.006155
  1.084215
  0.998706
  0.939085
  1.092472
  1.067890
  0.951451
  1.022584
  0.986639
  1.016457
  1.036032
  1.067523
  1.100487
  0.949983
  1.086385
  1.047808
  1.002048
  0.993684
  0.968574
  1.024206
  1.006695
  1.050317
  1.009344
  1.092357
  1.101015
  0.998867
  0.944617
  1.071369
  0.944672
  1.022983
  0.981854
  1.011752
  1.034474
  1.070915
  0.983750
  1.111704
  1.088948
  0.985255
  0.921762
  1.047151
  0.987758
  0.997701
  1.019749
  1.001016
  1.048173
  1.097160
  0.959136
  1.105882
  0.998327
  0.857859
  1.069099
  0.929033
  1.019610
  1.005277
  1.028871
  1.068062
  0.973835
  1.119848
  0.908989
  1.083944
  1.042716
  0.987081
  0.989990
  0.945486
  1.011009
  0.991181
  1.041003
  1.094806
  0.972896
  1.108591
  0.986872
  1.058702
  0.914248
  0.952174
  1.010267
  0.938839
  0.966540
  0.994425
  1.017719
  1.059348
  1.114522
  1.077965
  0.936260
  0.924837
  1.029625
  0.976930
  0.979890
  0.975695
  0.943205
  0.997839
  0.976598
  1.026168
  1.083518
  0.972866
  1.101160
  0.930299
  1.045802
  0.993855
  0.926135
  0.967618
  0.947527
  0.978544
  0.999787
  1.039441
  1.104349
  0.920589
  0.962772
  1.061408
  0.930798
  1.008765
  0.956384
  0.924893
  0.976780
  1.003104
  1.054124
  0.961693
  1.087950
  0.862387
  1.017752
  0.969571
  0.678214
  0.907060
  0.927570
  0.974826
  0.959034
  1.009386
  1.067779
  0.903131
  1.038629
  0.978033
  0.951139
  0.925995
  0.896759
  1.017808
  0.901648
  0.954088
  0.969435
  0.944378
  1.046921
  0.949118
  0.988584
  0.855288
  0.929638
  0.889897
  0.895892
  0.933079
  0.884145
  0.937467
  0.943911
  1.013397
  0.961908
  0.994364
  0.933460
  0.939188
  0.869878
  0.881979
  0.870811
  0.925377
  0.926967
  0.934737
  0.944053
  0.926402
  0.987509
  0.940773
  0.877635
  0.855506
  0.866797
  0.858301
  0.911931
  0.908249
  0.920551
  0.903531
  0.946127
  0.861694
  0.919372
  0.862052
  0.819101
  0.838704
  0.894497
  0.881280
  0.904362
  0.853352
  0.848610
  0.907037
  0.832808
  0.790059
  0.851083
  0.808529
  0.832298
  0.836480
  0.884865
  0.886454
  0.868818
  0.846787
  0.808232
  0.761148
  0.857652
  0.898466
  0.935568
  0.773808
  0.806946
  0.927448
  0.790198
  0.706809
  0.828426
  0.866088
  0.827582
  0.881697
  0.706797
  0.832781
  0.807613
  0.749534
  0.676554
  0.894094
  0.864952
  0.651034
  0.836043
  0.760930
  0.877192
  0.893078
  0.641891
  0.830855
  0.776367
  0.676522
  0.813928
  0.838513
  0.791880
  0.866337
  0.557294
  0.559197
  0.822134
  0.847306
  0.487968
  0.788757
  0.635916
  0.516364
  0.804842
  0.728067
  0.552321
  0.696364
  0.864511
  0.751307
  0.806164
  0.819474
  0.899842
  0.381182
  0.402579
  0.818329
  0.844528
  0.759438
  0.632209
  0.423430
  0.523982
  0.376850
  0.850432
  0.406684
  0.956529
  0.817291
  0.617415
  0.775921
  0.783923
  0.708041
  0.693757
  0.380307
  0.391852
  0.534496
  0.405023
  0.848396
  0.816715
  0.399102
  0.864586
  0.470568
  0.805848
  0.476914
  0.829605
  0.740935
  0.628074
  0.516826
  0.804575
  0.538162
  0.667916
  0.833508
  0.578341
  0.783174
  0.548715
  0.914884
  0.569987
  0.774984
  0.746081
  0.688688
  0.555360
  0.837335
  0.586688
  0.831350
  0.807580
  0.868267
  0.587460
  0.603672
  0.846778
  0.703192
  0.820756
  0.742368
  0.643173
  0.659574
  0.780488
  0.888456
  0.591904
  0.629997
  0.851445
  0.797440
  0.617704
  0.612046
  0.644936
  0.640777
  0.757224
  0.704467
  0.831038
  0.815656
  0.870024
  0.773709
  0.628803
  0.687838
  0.845023
  0.730982
  0.677009
  0.819730
  0.657071
  0.679536
  0.794086
  0.813314
  0.751016
  0.703111
  0.858865
  0.662785
  0.797666
  0.687644
  0.674230
  0.773924
  0.673555
  0.689735
  0.731522
  0.834585
  0.823441
  0.783294
  0.891842
  0.688553
  0.747465
  0.695135
  0.817018
  0.717165
  0.716480
  0.810794
  0.769432
  0.957412
  0.703393
  0.863637
  0.806392
  0.849247
  0.747592
  0.725900
  0.739263
  0.798234
  0.758660
  0.885098
  0.897900
  0.743796
  0.751917
  0.830444
  0.839023
  0.797892
  0.742878
  0.776490
  0.825781
  1.006494
  0.760231
  0.752475
  0.767353
  0.916097
  0.834708
  0.791745
  0.765855
  0.859764
  0.911715
  0.818557
  0.778231
  0.864039
  0.837140
  0.835629
  0.787958
  0.831520
  0.770253
  0.799207
  0.796660
  0.861001
  0.817338
  0.863597
  0.781711
  0.811693
  0.798841
  0.828871
  0.783280
  0.868411
  0.818531
  0.814951
  0.788983
  0.801986
  0.865014
  0.834164
  0.800082
  0.797980
  0.881348
  0.820718
  0.863394
  0.821998
  0.840291
  0.871565
  0.847569
  0.807964
  0.883889
  0.838811
  0.843328
  0.849941
  0.845641
  0.811914
  0.849896
  0.824353
  0.892671
  0.845947
  0.902480
  0.854276
  0.830796
  0.848126
  0.906277
  0.943819
  0.854314
  0.901577
  0.856087
  0.875352
  0.858107
  0.917491
  0.862684
  0.857207
  0.903356
  0.866302
  0.836112
  0.867140
  0.901603
  0.864603
  0.918495
  0.939552
  0.872130
  0.877467
  0.927121
  0.910511
  0.873832
  0.917255
  0.933095
  0.942535
  0.893186
  0.955602
  0.963057
  0.894686
  0.879846
  0.868312
  0.927080
  0.920888
  0.976857
  0.955080
  0.844205
  0.886975
  0.914697
  0.883418
  0.942234
  0.933592
  0.914089
  0.994033
  0.980118
  0.907866
  0.946711
  0.891613
  0.967158
  0.940061
  1.006094
  0.994007
  0.934579
  0.888512
  0.968967
  1.021332
  0.999035
  0.910891
  0.942666
  0.996679
  0.891332
  0.967600
  1.033805
  0.969996
  1.040746
  1.041998
  0.938489
  0.889057
  1.013513
  1.004379
  1.045711
  0.906983
  1.003109
  0.948794
  1.025296
  1.065964
  0.891622
  1.066322
  0.826750
  0.974992
  1.051298
  0.936741
  1.052396
  0.924145
  0.820193
  1.076996
  0.987257
  0.896596
  1.024394
  0.881892
  1.076206
  1.112040
  1.091510
  0.972839
  0.930521
  1.141212
  1.093862
  1.038459
  0.944104
  1.084328
  1.148409
  1.101940
  0.876081
  1.024390
  1.178950
  1.093308
  0.960670
  0.892992
  1.011775
  0.908682
  1.140873
  1.091012
  1.204792
  0.938480
  1.161763
  1.008896
  0.808407
  1.225683
  0.724196
  1.168124
  1.081843
  0.944707
  1.202513
  1.229009
  1.204914
  0.986062
  1.253756
  1.069822
  0.882058
  1.161350
  1.254847
  1.256935
  0.970809
  0.897903
  0.925950
  1.049235
  1.162825
  1.281772
  1.265554
  1.040142
  0.805309
  1.288190
  1.131507
  1.308227
  0.845446
  1.307028
  0.943252
  1.265370
  0.999257
  1.239226
  0.886010
  1.120581
  1.303760
  1.330230
  0.889685
  0.994075
  1.320544
  0.926486
  1.076599
  1.368977
  1.224297
  1.334418
  1.060724
  1.370776
  1.427293
  1.176668
  1.423007
  0.929264
  1.331479
  1.419563
  1.453717
  1.006679
  1.146461
  0.889844
  1.305559
  0.744992
  0.997690
  1.442310
  0.839437
  1.485200
  0.920878
  1.098078
  1.489266
  1.274495
  0.613901
  1.509761
  1.428665
  1.064937
  1.216364
  0.845971
  1.511997
  0.899594
  1.461847
  1.546528
  0.876928
  1.527257
  1.003739
  1.542956
  1.166978
  1.548124
  0.666683
  1.359266
  0.982613
  0.789583
  0.889588
  1.100961
  1.550832
  0.496590
  1.573384
  1.298307
  0.693880
  1.584781
  1.579644
  1.053625
  1.225171
  0.845770
  1.561924
  1.549270
  1.567730
  0.965281
  0.802752
  1.626479
  1.159841
  1.452967
  0.734166
  1.591151
  1.617038
  0.919360
  1.392148
  0.851257
  1.069348
  1.572539
  1.293077
  0.857676
  1.642106
  1.011188
  1.186182
  1.581990
  0.755338
  1.605824
  1.520183
  0.633113
  0.902516
  1.377763
  1.095957
  1.528933
  0.743309
  1.538044
  1.313570
  1.600396
  0.616626
  1.521253
  0.779018
  0.965139
  1.534365
  1.198005
  0.842877
  0.757242
  1.440850
  0.620193
  1.033910
  1.501493
  0.907632
  0.641485
  1.423006
  0.976929
  0.742872
  1.374704
  1.250647
  0.662578
  1.395342
  1.118757
  1.298349
  1.320294
  0.556923
  1.361392
  0.683790
  0.717761
  1.250610
  0.735995
  0.937089
  1.228899
  0.560415
  0.614555
  0.505070
  0.697037
  0.483945
  1.011532
  1.092557
  0.749361
  1.144238
  0.426402
  0.539796
  1.013857
  0.419977
  0.696476
  0.951674
  0.958481
  0.441529
  0.708046
  0.563216
  0.861212
  0.274644
  0.825378
  0.282877
  0.570060
  0.876744
  0.722328
  0.697219
  0.435971
  0.078491
  0.496871
  0.352280
  0.225623
  -0.072133
  0.500154
  0.463175
  0.544126
  0.342849
  0.283003
  0.287624
  0.230236
  0.104329
  0.154494
  0.411610
  -0.436781
  -0.119360
  -0.208207
  0.068449
  0.110231
  0.413485
  0.219870
  -0.139672
  -0.111477
  -0.305203
  -0.806993
  -0.109105
  -0.226169
  0.350649
  -0.802064
  -0.409668
  -0.350602
  -0.364427
  -0.192184
  -0.705084
  -1.081920
  0.171423
  -1.342670
  -0.577999
  -0.722057
  -0.807843
  -0.059035
  -0.914138
  -0.846263
  -1.732166
  -0.130088
  0.080947
  -0.952998
  -0.862396
  -1.288377
  -0.388082
  -1.082163
  -1.652608
  0.139611
  -1.314424
  -1.760402
  -0.826436
  0.457743
  0.329558
  -0.709442
  -1.396409
  -0.241057
  -2.281844
  -0.107283
  -1.412810
  -1.559288
  -1.588978
  -1.784510
  -1.907663
  -1.914080
  -1.407049
  -2.590182
  -0.507888
  -1.752304
  0.488381
  -0.662979
  -1.897060
  -2.423792
  -0.030861
  -1.915773
  -1.303838
  -2.129207
  0.134887
  -2.546350
  -0.313688
  -2.559446
  -1.205191
  -2.921020
  -0.427172
  -2.143738
  -2.194071
  -2.147443
  -2.091044
  -2.242680
  0.287163
  -3.005500
  -0.921011
  -2.381928
  -0.809132
  -2.843837
  -0.263329
  -2.345658
  -2.653406
  -2.771302
  -2.448731
  -2.416368
  -1.657603
  -3.099798
  -0.402473
  -0.677444
  -1.503164
  -2.469723
  0.021828
  -2.806342
  -2.395499
  -2.437492
  -2.452569
  -3.018078
  -2.489210
  -1.125096
  -2.485593
  -0.888547
  -2.475826
  -2.768985
  -0.388601
  -2.908380
  -1.804009
  -2.397196
  -2.497003
  -1.912794
  -2.721921
  -0.867529
  -0.397768
  -2.418041
  -1.358875
  -2.608593
  -2.342021
  -0.236740
  -2.325869
  -2.589625
  -1.399022
  -2.423182
  -2.338811
  -2.362702
  0.319794
  -2.757461
  -0.528171
  -0.846699
  -2.316036
  -2.378821
  -2.224073
  -1.760918
  -2.264807
  -2.247221
  -0.907912
  -1.173942
  -2.304699
  -1.875194
  0.116325
  -0.410062
  -2.490757
  -2.367006
  -2.343298
  -2.159509
  0.697244
  -2.192449
  -2.277345
  -2.304951
  -1.261567
  -2.108423
  -2.261399
  -2.301740
  0.092171
  -2.166333
  -2.129314
  -2.164812
  -2.182138
  -2.287439
  -2.228657
  -0.805044
  -2.001944
  -2.213254
  0.440507
  -2.222147
  -2.276574
  -0.469802
  -2.109438
  -2.253088
  -2.168925
  -2.101310
  -2.134038
  -2.245220
  -2.152207
  -2.166551
  -2.111024
  -2.203278
  -2.133508
  -2.164011
  -0.371909
  -1.329877
  -2.099905
  -2.211084
  -0.910245
  -2.160031
  -2.188549
  -1.895411
  -2.162871
  -1.363849
  -2.180413
  -2.171513
  -1.845346
  -2.178939
  -2.144854
  -2.065268
  -2.028943
  -2.096063
  -2.177837
  -2.087402
  -2.138188
  -2.115808
  -2.181621
  -0.669043
  -2.113440
  -2.189440
  -2.119591
  -2.186034
  -0.483533
  -2.178791
  -2.098673
  -0.852574
  -0.172888
  -2.129196
  -2.221317
  -1.328903
  -1.402957
  -1.981709
  -2.063725
  -2.079729
  -2.276493
  -2.126515
  -2.233070
  -2.164660
  -2.108230
  -2.225737
  -0.025911
  0.275147
  -0.538852
  -2.192040
  -0.370695
  -2.583831
  -2.290689
  -2.643556
  -2.253954
  -2.237673
  -2.700884
  -2.697200
  -2.298873
  -0.086887
  -2.676770
  -0.694443
  0.494604
  -2.242104
  -1.016180
  -2.129085
  -1.369292
  -2.658038
  0.627404
  -2.790149
  -3.062468
  -2.754355
  -2.767039
  -3.195705
  -3.298199
  -3.293447
  -0.318574
  0.363327
  -0.263553
  -2.777069
  -2.968634
  -0.863383
  -0.601676
  1.058733
  0.223745
  -2.085828