# vtk DataFile Version 2.0
FSI_Simulation
ASCII

DATASET UNSTRUCTURED_GRID
POINTS 2042 double
  2.500000  0.410000  0.000000
  2.450000  0.410000  0.000000
  2.500000  0.358750  0.000000
  2.455000  0.345150  0.000000
  2.400000  0.410000  0.000000
  2.500000  0.307500  0.000000
  2.409170  0.352960  0.000000
  2.425000  0.303110  0.000000
  2.350000  0.410000  0.000000
  2.359860  0.354270  0.000000
  2.500000  0.256250  0.000000
  2.450000  0.259810  0.000000
  2.375000  0.303110  0.000000
  2.400000  0.259810  0.000000
  2.300000  0.410000  0.000000
  2.500000  0.205000  0.000000
  2.325000  0.303110  0.000000
  2.425000  0.216510  0.000000
  2.300000  0.346410  0.000000
  2.350000  0.259810  0.000000
  2.375000  0.216510  0.000000
  2.450000  0.173210  0.000000
  2.275000  0.303110  0.000000
  2.250000  0.410000  0.000000
  2.300000  0.259810  0.000000
  2.500000  0.153750  0.000000
  2.400000  0.173210  0.000000
  2.250000  0.346410  0.000000
  2.325000  0.216510  0.000000
  2.350000  0.173210  0.000000
  2.429170  0.133880  0.000000
  2.250000  0.259810  0.000000
  2.225000  0.303110  0.000000
  2.275000  0.216510  0.000000
  2.200000  0.410000  0.000000
  2.197270  0.363510  0.000000
  2.375000  0.129900  0.000000
  2.500000  0.102500  0.000000
  2.300000  0.173210  0.000000
  2.450000  0.086600  0.000000
  2.325000  0.129900  0.000000
  2.200000  0.259810  0.000000
  2.225000  0.216510  0.000000
  2.400000  0.086600  0.000000
  2.250000  0.173210  0.000000
  2.170490  0.306770  0.000000
  2.150000  0.410000  0.000000
  2.350000  0.086600  0.000000
  2.500000  0.051250  0.000000
  2.275000  0.129900  0.000000
  2.135420  0.358250  0.000000
  2.429170  0.044630  0.000000
  2.175000  0.216510  0.000000
  2.300000  0.086600  0.000000
  2.150000  0.259810  0.000000
  2.200000  0.173210  0.000000
  2.375000  0.043300  0.000000
  2.225000  0.129900  0.000000
  2.112500  0.313250  0.000000
  2.100000  0.410000  0.000000
  2.325000  0.043300  0.000000
  2.250000  0.086600  0.000000
  2.500000  0.000000  0.000000
  2.450000  0.000000  0.000000
  2.125000  0.216510  0.000000
  2.400000  0.000000  0.000000
  2.150000  0.173210  0.000000
  2.075000  0.366700  0.000000
  2.175000  0.129900  0.000000
  2.275000  0.043300  0.000000
  2.087500  0.269950  0.000000
  2.350000  0.000000  0.000000
  2.200000  0.086600  0.000000
  2.050000  0.410000  0.000000
  2.300000  0.000000  0.000000
  2.050000  0.323400  0.000000
  2.225000  0.043300  0.000000
  2.100000  0.173210  0.000000
  2.125000  0.129900  0.000000
  2.062500  0.226650  0.000000
  2.150000  0.086600  0.000000
  2.025000  0.366700  0.000000
  2.250000  0.000000  0.000000
  2.175000  0.043300  0.000000
  2.025000  0.280100  0.000000
  2.000000  0.410000  0.000000
  2.000000  0.323400  0.000000
  2.200000  0.000000  0.000000
  2.070830  0.133290  0.000000
  2.100000  0.086600  0.000000
  2.037500  0.183350  0.000000
  2.125000  0.043300  0.000000
  1.975000  0.366700  0.000000
  2.000000  0.236790  0.000000
  2.150000  0.000000  0.000000
  1.975000  0.280100  0.000000
  1.950000  0.410000  0.000000
  2.050000  0.086600  0.000000
  1.950000  0.323400  0.000000
  2.012500  0.140050  0.000000
  2.075000  0.043300  0.000000
  1.975000  0.193490  0.000000
  2.100000  0.000000  0.000000
  1.925000  0.366700  0.000000
  1.950000  0.236790  0.000000
  1.925000  0.280100  0.000000
  2.000000  0.086600  0.000000
  1.900000  0.410000  0.000000
  2.025000  0.043300  0.000000
  1.900000  0.323400  0.000000
  1.950000  0.150190  0.000000
  2.050000  0.000000  0.000000
  1.925000  0.193490  0.000000
  1.900000  0.236790  0.000000
  1.875000  0.366700  0.000000
  1.875000  0.280100  0.000000
  1.975000  0.043300  0.000000
  1.937500  0.096750  0.000000
  2.000000  0.000000  0.000000
  1.850000  0.410000  0.000000
  1.902380  0.145780  0.000000
  1.850000  0.323400  0.000000
  1.875000  0.193490  0.000000
  1.850000  0.236790  0.000000
  1.820830  0.365370  0.000000
  1.925000  0.043300  0.000000
  1.950000  0.000000  0.000000
  1.800000  0.410000  0.000000
  1.850000  0.150190  0.000000
  1.877180  0.088810  0.000000
  1.810710  0.280600  0.000000
  1.800000  0.323400  0.000000
  1.820830  0.195410  0.000000
  1.800000  0.236790  0.000000
  1.900000  0.000000  0.000000
  1.875360  0.035430  0.000000
  1.825000  0.106890  0.000000
  1.800000  0.150190  0.000000
  1.750000  0.410000  0.000000
  1.750000  0.358750  0.000000
  1.750000  0.307500  0.000000
  1.750000  0.256250  0.000000
  1.825000  0.043300  0.000000
  1.850000  0.000000  0.000000
  1.750000  0.205000  0.000000
  1.793300  0.076870  0.000000
  1.750000  0.153750  0.000000
  1.700640  0.410000  0.000000
  1.704300  0.327190  0.000000
  1.750000  0.102500  0.000000
  1.800000  0.000000  0.000000
  1.706240  0.242410  0.000000
  1.676060  0.366700  0.000000
  1.679550  0.284150  0.000000
  1.704500  0.168810  0.000000
  1.750000  0.051250  0.000000
  1.682040  0.198780  0.000000
  1.655740  0.327710  0.000000
  1.651490  0.410000  0.000000
  1.750000  0.000000  0.000000
  1.656690  0.241750  0.000000
  1.703750  0.082910  0.000000
  1.678980  0.125940  0.000000
  1.627030  0.366700  0.000000
  1.631170  0.284620  0.000000
  1.654610  0.169080  0.000000
  1.632070  0.198270  0.000000
  1.607330  0.328120  0.000000
  1.602560  0.410000  0.000000
  1.700280  0.000000  0.000000
  1.675600  0.043300  0.000000
  1.655160  0.082380  0.000000
  1.606810  0.241470  0.000000
  1.630810  0.125620  0.000000
  1.578220  0.366700  0.000000
  1.582990  0.284920  0.000000
  1.604730  0.168150  0.000000
  1.578920  0.210800  0.000000
  1.650920  0.000000  0.000000
  1.559000  0.328320  0.000000
  1.553870  0.410000  0.000000
  1.626430  0.043300  0.000000
  1.606660  0.082260  0.000000
  1.556930  0.242380  0.000000
  1.582820  0.125810  0.000000
  1.529630  0.366700  0.000000
  1.534940  0.284960  0.000000
  1.555320  0.166880  0.000000
  1.601940  0.000000  0.000000
  1.530950  0.199810  0.000000
  1.577650  0.043300  0.000000
  1.510670  0.328200  0.000000
  1.505400  0.410000  0.000000
  1.558080  0.082770  0.000000
  1.534730  0.126670  0.000000
  1.507460  0.243800  0.000000
  1.481280  0.366700  0.000000
  1.486910  0.284640  0.000000
  1.506480  0.166500  0.000000
  1.553350  0.000000  0.000000
  1.529250  0.043300  0.000000
  1.482130  0.200990  0.000000
  1.462240  0.327690  0.000000
  1.457160  0.410000  0.000000
  1.509220  0.083990  0.000000
  1.486020  0.128110  0.000000
  1.458500  0.244760  0.000000
  1.433170  0.366700  0.000000
  1.438620  0.283990  0.000000
  1.458930  0.158770  0.000000
  1.505150  0.000000  0.000000
  1.481250  0.043300  0.000000
  1.434180  0.201480  0.000000
  1.459870  0.085670  0.000000
  1.413590  0.326890  0.000000
  1.409170  0.410000  0.000000
  1.409940  0.244800  0.000000
  1.385300  0.366700  0.000000
  1.389560  0.283370  0.000000
  1.409090  0.158420  0.000000
  1.457350  0.000000  0.000000
  1.433650  0.043300  0.000000
  1.386550  0.201040  0.000000
  1.410050  0.086600  0.000000
  1.364750  0.326450  0.000000
  1.361420  0.410000  0.000000
  1.361460  0.243860  0.000000
  1.337670  0.366700  0.000000
  1.409950  0.000000  0.000000
  1.338650  0.284240  0.000000
  1.386460  0.043300  0.000000
  1.354150  0.119670  0.000000
  1.313920  0.410000  0.000000
  1.316290  0.328550  0.000000
  1.332940  0.164270  0.000000
  1.312360  0.242750  0.000000
  1.362970  0.000000  0.000000
  1.290300  0.366700  0.000000
  1.295390  0.283330  0.000000
  1.339680  0.043300  0.000000
  1.325730  0.078680  0.000000
  1.304410  0.123360  0.000000
  1.266670  0.410000  0.000000
  1.266740  0.323400  0.000000
  1.272670  0.239000  0.000000
  1.283210  0.168120  0.000000
  1.316400  0.000000  0.000000
  1.243180  0.366700  0.000000
  1.246180  0.281190  0.000000
  1.293330  0.043300  0.000000
  1.277840  0.081590  0.000000
  1.256410  0.126460  0.000000
  1.219690  0.410000  0.000000
  1.219750  0.323400  0.000000
  1.233390  0.170720  0.000000
  1.222230  0.237350  0.000000
  1.270260  0.000000  0.000000
  1.196320  0.366700  0.000000
  1.247400  0.043300  0.000000
  1.196390  0.280100  0.000000
  1.229040  0.084940  0.000000
  1.205650  0.129050  0.000000
  1.189490  0.207370  0.000000
  1.172960  0.410000  0.000000
  1.173020  0.323400  0.000000
  1.224540  0.000000  0.000000
  1.181510  0.158020  0.000000
  1.201900  0.043300  0.000000
  1.149720  0.366700  0.000000
  1.179360  0.086600  0.000000
  1.143430  0.291070  0.000000
  1.144660  0.247780  0.000000
  1.126490  0.410000  0.000000
  1.142770  0.189580  0.000000
  1.179250  0.000000  0.000000
  1.134770  0.140320  0.000000
  1.156830  0.043300  0.000000
  1.103400  0.366700  0.000000
  1.100860  0.316520  0.000000
  1.099450  0.268150  0.000000
  1.103580  0.220000  0.000000
  1.080300  0.410000  0.000000
  1.096330  0.172140  0.000000
  1.134410  0.000000  0.000000
  1.100760  0.105310  0.000000
  1.058360  0.324420  0.000000
  1.099400  0.056460  0.000000
  1.059350  0.282410  0.000000
  1.062400  0.233330  0.000000
  1.051490  0.361960  0.000000
  1.062400  0.206670  0.000000
  1.062400  0.140000  0.000000
  1.034380  0.410000  0.000000
  1.090000  0.000000  0.000000
  1.032380  0.305960  0.000000
  1.027830  0.333570  0.000000
  1.033760  0.246670  0.000000
  1.028220  0.281830  0.000000
  1.059860  0.078570  0.000000
  1.030770  0.220170  0.000000
  1.033760  0.193330  0.000000
  1.015410  0.368300  0.000000
  1.056850  0.040910  0.000000
  1.013850  0.293330  0.000000
  1.011380  0.313820  0.000000
  1.013850  0.280000  0.000000
  1.013850  0.266670  0.000000
  1.013850  0.240000  0.000000
  1.012290  0.252000  0.000000
  1.025480  0.152840  0.000000
  1.013850  0.226670  0.000000
  1.028350  0.124560  0.000000
  1.002130  0.333160  0.000000
  1.012290  0.214670  0.000000
  1.013850  0.200000  0.000000
  1.032380  0.094040  0.000000
  1.000000  0.300000  0.000000
  1.012290  0.188000  0.000000
  1.013850  0.173330  0.000000
[...]
POINT_DATA 2042
SCALARS pressure double
LOOKUP_TABLE default
  0.599126
  4.216363
  0.082457
  3.106970
  5.431608
  0.201657
  4.576721
  2.984067
  5.928724
  5.753990
  0.015088
  1.626447
  4.835441
  3.608835
  6.413055
  -0.183781
  6.100766
  2.630847
  6.615107
  5.348861
  4.531411
  1.838083
  7.506777
  8.111603
  6.829004
  -0.049989
  3.792448
  7.821217
  6.062255
  5.417903
  3.057002
  8.108699
  8.653031
  7.468998
  9.884365
  9.958849
  4.826835
  0.015529
  6.866094
  3.069281
  6.298648
  9.566036
  8.890898
  4.611966
  8.306527
  10.936415
  11.610441
  5.921462
  0.151494
  7.694623
  12.086708
  4.963605
  10.343988
  7.231544
  11.210802
  9.608324
  5.837085
  9.027369
  12.277981
  12.957149
  6.830624
  8.504978
  0.918736
  4.507254
  11.710229
  5.626920
  11.014722
  13.431785
  10.348897
  8.010222
  12.754544
  6.459841
  9.738184
  13.955112
  7.519854
  13.896346
  9.220750
  12.282273
  11.562160
  13.344667
  11.026679
  14.447640
  8.691722
  10.412014
  14.341747
  15.012394
  15.068995
  9.866188
  12.952237
  12.217393
  13.849954
  11.530330
  15.672186
  14.984108
  11.021472
  15.611856
  16.429027
  13.413079
  16.372364
  14.475066
  12.729622
  15.540522
  12.064313
  17.066630
  16.250519
  16.876367
  14.684113
  17.842098
  14.035298
  17.669262
  16.027888
  13.419352
  16.864585
  17.579295
  18.208868
  18.102278
  14.907691
  16.189297
  14.681750
  18.844053
  17.400595
  18.705208
  18.331804
  18.838622
  19.165168
  15.982071
  15.095922
  19.593772
  18.846875
  17.527004
  19.786250
  20.041076
  19.756053
  20.403947
  17.269809
  17.902305
  19.372450
  20.372158
  21.497540
  21.633254
  21.630826
  21.795930
  19.250695
  18.858267
  21.889323
  20.456520
  21.708398
  23.566686
  23.319628
  21.923915
  19.852313
  22.958516
  24.453109
  23.813740
  23.173729
  21.888172
  23.850350
  24.709883
  24.886165
  21.723386
  24.390913
  23.804130
  24.186130
  25.500656
  25.288054
  24.701764
  25.300427
  25.929957
  26.058652
  23.937135
  24.871040
  25.114752
  25.845512
  25.608896
  26.672755
  26.530710
  26.083094
  26.663644
  25.266512
  27.168880
  27.286939
  25.842706
  26.237693
  27.247775
  26.693178
  27.941268
  27.820558
  27.341634
  26.357943
  27.944317
  26.896650
  28.435216
  28.576280
  27.363306
  27.861765
  28.504981
  29.175753
  29.055428
  28.579767
  27.451101
  28.015865
  29.149628
  29.675495
  29.792224
  28.529217
  29.141570
  29.787408
  30.392516
  30.303040
  29.791419
  28.613951
  29.230735
  30.339804
  29.742826
  30.909587
  30.984885
  30.996572
  31.618934
  31.550265
  30.847428
  29.809384
  30.205397
  31.652458
  30.754870
  32.238575
  32.225154
  32.413661
  32.796239
  30.651310
  32.935337
  31.358560
  32.397138
  33.423477
  33.416903
  33.056805
  33.585986
  32.158852
  34.076338
  34.051776
  32.756918
  33.140302
  33.862969
  34.713078
  34.729050
  34.769660
  34.456913
  33.352920
  35.291820
  35.327195
  33.844449
  34.353211
  34.990648
  35.779505
  36.018696
  35.862228
  36.243514
  34.443331
  36.269125
  34.828471
  36.798872
  35.546544
  36.311586
  37.235671
  36.813793
  37.367435
  35.306024
  37.224503
  35.875107
  37.571176
  36.750780
  38.313619
  38.464551
  38.500642
  38.536751
  36.824964
  38.773005
  36.942733
  39.076475
  39.359670
  39.974407
  39.985139
  39.728574
  39.924481
  37.437859
  39.434942
  41.162516
  38.563969
  41.238206
  41.421534
  40.865353
  41.338909
  40.929332
  41.278354
  38.369524
  42.731916
  42.682781
  42.304974
  42.822228
  40.889715
  42.605326
  42.492472
  42.911687
  40.460843
  43.552541
  43.686060
  43.494019
  43.429876
  43.397555
  43.466004
  42.782533
  43.415357
  42.644062
  44.357458
  43.470209
  43.330585
  42.204122
  44.203767
  43.368075
  43.314076
  44.104497
  44.084776
  44.063493
  43.433993
  44.053270
  42.248951
  43.334125
  44.606410
  44.039524
  40.683933
  44.013917
  43.244411
  44.026878
  44.353384
  44.005550
  43.253157
  43.989368
  43.272726
  44.720447
  43.988857
  44.615334
  43.990155
  43.981709
  44.640465
  43.116178
  44.856941
  43.937082
  44.955035
  44.560031
  44.853854
  44.956719
  43.878552
  44.760694
  44.660552
  43.827050
  44.527836
  45.176671
  43.686844
  44.955660
  45.190733
  45.140233
  45.161250
  44.481322
  44.739888
  44.941226
  45.493731
  45.149854
  45.647278
  45.414739
  44.299419
  44.529108
  45.538198
  44.826020
  45.399578
  43.899865
  45.111012
  45.319751
  45.730444
  45.496990
  44.283836
  45.784183
  45.721326
  45.002637
  45.910213
  45.334398
  46.097440
  45.542216
  44.774670
  45.832374
  45.729728
  45.991221
  44.169576
  44.408433
  46.150702
  43.487660
  45.456485
  46.765280
  45.697260
  45.243278
  45.903776
  46.450532
  47.351267
  46.095470
  46.221834
  44.814138
  46.375950
  45.592834
  46.582281
  45.896212
  46.081121
  46.843520
  45.411048
  46.422690
  46.328486
  46.582546
  46.732938
  47.194888
  45.033212
  46.053059
  46.299075
  45.871415
  46.495127
  46.983880
  46.664617
  46.815416
  45.552470
  46.956331
  44.773772
  47.136539
  46.497534
  46.681693
  46.294107
  46.050856
  47.021282
  46.916816
  47.186647
  47.158812
  47.304650
  45.608241
  46.706942
  46.916038
  47.147863
  47.088430
  46.504762
  47.518655
  47.265766
  46.149906
  47.405177
  47.511923
  45.539006
  47.670110
  47.125275
  46.934409
  47.320541
  47.638096
  47.469164
  46.700752
  47.601894
  47.750935
  47.724675
  47.882136
  46.510380
  48.042299
  47.349642
  47.531284
  47.697443
  44.961951
  47.186595
  47.953133
  48.121464
  47.864456
  47.058529
  48.125010
  48.270568
  47.747823
  47.914195
  47.587090
  48.062938
  48.513140
  47.441102
  48.199842
  48.630751
  48.340610
  48.477523
  47.699526
  48.651134
  47.987611
  48.154877
  48.305433
  48.426677
  47.852589
  48.547929
  48.798345
  47.792112
  47.161558
  48.666531
  47.991565
  48.867335
  48.894622
  48.374688
  48.526488
  48.239902
  48.673833
  49.110963
  48.878400
  48.801883
  48.054909
  48.209783
  49.062579
  49.151189
  48.768648
  48.624601
  49.025507
  48.920784
  49.149254
  48.513344
  49.319379
  48.382482
  49.258004
  49.415042
  49.001198
  49.143695
  48.869233
  49.273872
  49.473673
  49.405585
  49.626358
  49.342457
  49.637952
  48.738983
  49.236166
  49.801075
  49.395251
  49.531199
  49.134667
  49.635325
  49.754218
  49.017359
  49.936475
  49.849127
  48.009298
  50.022795
  49.631719
  49.497320
  49.756910
  49.886883
  49.990489
  50.065935
  50.050480
  50.235556
  50.286453
  50.243925
  49.407145
  49.868952
  49.992115
  50.153642
  50.145210
  49.778666
  50.247132
  49.910742
  50.358465
  49.746486
  50.425639
  50.449018
  50.621285
  50.138611
  50.377907
  50.263130
  49.971181
  50.372551
  50.499611
  50.596807
  50.717800
  50.778539
  50.089784
  50.349478
  50.854526
  50.841979
  50.497118
  50.612352
  50.735151
  50.474306
  50.848519
  51.235577
  50.966455
  50.499230
  51.082870
  50.996529
  51.084917
  50.810161
  50.890827
  50.991488
  51.107972
  51.204601
  51.223959
  51.320310
  51.428119
  51.436569
  50.982086
  51.126286
  51.231778
  51.343270
  51.128471
  51.458373
  51.134091
  51.571820
  51.700900
  51.715337
  51.808795
  51.694579
  51.003402
  51.492512
  51.397101
  51.585560
  51.695889
  52.363821
  51.809236
  52.276276
  51.309032
  51.928830
  51.395590
  52.037701
  52.127751
  51.845415
  51.750001
  51.953273
  52.063115
  52.283716
  51.699792
  52.179324
  52.489369
  52.300134
  52.450319
  51.879648
  52.105089
  52.195013
  52.298740
  52.414846
  52.633992
  52.876952
  52.528206
  52.644822
  52.766706
  52.124800
  52.734347
  52.538328
  52.458995
  52.383076
  51.869012
  52.936101
  52.670438
  52.897040
  52.390066
  52.781603
  53.017354
  52.911432
  52.627810
  52.785568
  52.718603
  52.901368
  53.013830
  52.466534
  53.134793
  52.607303
  53.354249
  53.290448
  53.364038
  53.044061
  52.965353
  53.149965
  53.519543
  53.252642
  53.249905
  52.917603
  53.385321
  53.611610
  53.512428
  53.594552
  53.287158
  53.388559
  53.254400
  53.503577
  53.762992
  52.651159
  53.614574
  53.725298
  53.860280
  53.334931
  53.361347
  53.950211
  53.641712
  53.574647
  54.088135
  53.747031
  53.698206
  53.848649
  53.608103
  53.977672
  54.213783
  54.114698
  54.212463
  54.321627
  53.887567
  53.976987
  53.883049
  54.099402
  54.203876
  54.026643
  54.507908
  54.329348
  53.990459
  54.465872
  54.571296
  54.700107
  54.314372
  54.229350
  54.163285
  54.444893
  54.753426
  54.192216
  54.578892
  54.259276
  54.697959
  54.954227
  54.825069
  54.947817
  54.458305
  54.564085
  54.658512
  54.439647
  55.063284
  54.819179
  54.923273
  55.071915
  54.429156
  55.175263
  54.783892
  54.714060
  55.311960
  54.902032
  55.409355
  54.738014
  55.035761
  54.701232
  55.177589
  55.295746
  55.500743
  55.428719
  54.880473
  55.554200
  55.018940
  55.122582
  55.248051
  54.638037
  55.390511
  55.511646
  55.920230
  55.644161
  55.059066
  54.914013
  55.772026
  55.909328
  55.357569
  55.470644
  55.318143
  55.621527
  55.284989
  56.524872
  55.773057
  55.861979
  56.186965
  56.028253
  56.168227
  55.594101
  55.700527
  55.834433
  55.983047
  56.594078
  56.110574
  56.242520
  56.379296
  55.780271
  56.536665
  55.930004
  55.840482
  56.050664
  55.177387
  56.207969
  56.317287
  55.832294
  56.862118
  56.493001
  56.747995
  56.596888
  56.747588
  56.146797
  56.272544
  56.411402
  55.874014
  56.569078
  56.705354
  57.097229
  56.970574
  56.839650
  56.153960
  56.967976
  56.484983
  56.377565
  56.628658
  56.791847
  57.166632
  56.919163
  56.320963
  56.989037
  57.055734
  57.275629
  57.182326
  56.710408
  56.839989
  56.995662
  57.380164
  57.142366
  57.264187
  57.298720
  57.437300
  56.577026
  57.557179
  57.618886
  57.038568
  56.886957
  57.203877
  57.370431
  56.223852
  57.522713
  56.870612
  57.659645
  58.120852
  57.784470
  57.778116
  57.821367
  57.927877
  57.213986
  57.399624
  57.579309
  57.747008
  57.899131
  58.079747
  58.186496
  58.035501
  56.980885
  56.622064
  58.142863
  58.224848
  57.580249
  57.386645
  57.775350
  57.966317
  57.324681
  58.129997
  58.837613
  58.267025
  58.356842
  58.539402
  57.164750
  58.511946
  57.734734
  57.958722
  58.159214
  58.348392
  58.664924
  57.319257
  58.510642
  58.978238
  58.646296
  58.723779
  58.806086
  58.128074
  58.344096
  58.561756
  57.828943
  58.755635
  59.305490
  58.885669
  58.954265
  59.578325
  59.067201
  58.991934
  58.513419
  58.274680
  58.734489
  58.976860
  59.158588
  59.155312
  59.252643
  58.105463
  59.259474
  59.330104
  59.085733
  59.341035
  58.696500
  58.901183
  58.539957
  59.403113
  58.241313
  59.521775
  59.302962
  59.538707
  59.534913
  59.546886
  57.313986
  59.625342
  58.897589
  59.073083
  59.575443
  59.295093
  59.817799
  59.863704
  58.994568
  59.677670
  59.843932
  59.868156
  59.247666
  59.452279
  59.104751
  59.715616
  59.138898
  60.083350
  60.168798
  60.107187
  60.080645
  59.991897
  60.157496
  59.439123
  59.605705
  60.090025
  59.837495
  60.579046
  60.417321
  59.483231
  60.207537
  60.364472
  60.397295
  59.769745
  59.979005
  59.599480
  60.242142
  60.473926
  60.476344
  60.723614
  60.615170
  60.614278
  60.614305
  60.656129
  60.769162
  60.652727
  59.932190
  60.118222
  60.343252
  61.063479
  60.802248
  60.854144
  59.883925
  61.443572
  60.733156
  60.894569
  59.556013
  60.674035
  61.004305
  60.984920
  60.272962
  60.469381
  60.097588
  61.183888
  61.205566
  61.174915
  61.175991
  61.156198
  59.875094
  60.428267
  61.219809
  60.615713
  60.807256
  60.228506
  59.496395
  61.045051
  61.636839
  61.362594
  61.032502
  61.529442
  60.757833
  60.960538
  60.573745
  61.354393
  61.408081
  61.811418
  60.845873
  61.418388
  61.701995
  61.599461
  61.365808
  61.108787
  61.287102
  61.364907
  61.734455
  60.893985
  61.847944
  62.018347
  62.330724
  60.276658
  61.591547
  61.545641
  61.286333
  61.230812
  61.439524
  61.581683
  61.786210
  61.804863
  61.696386
  62.554443
  61.601911
  62.227658
  62.331156
  62.047970
  62.195838
  61.599984
  62.207499
  61.742475
  61.832921
  61.908277
  61.823375
  61.964824
  61.379076
  62.603912
  61.947697
  61.307335
  61.994659
  62.483910
  62.028869
  61.637144
  61.896201
  62.026324
  62.233873
  61.847002
  62.345541
  62.522900
  62.798249
  62.418389
  62.680583
  62.347343
  62.624731
  62.268334
  62.076430
  62.756576
  62.232704
  62.434485
  61.943081
  62.541215
  62.983119
  62.962640
  62.113307
  62.611996
  62.678358
  61.393558
  62.889106
  62.254872
  62.372664
  62.490592
  62.873279
  63.099132
  63.246357
  62.704363
  62.824769
  63.310746
  62.443245
  62.753688
  62.843291
  62.991706
  62.986184
  63.239528
  62.703323
  62.655432
  63.442879
  63.545743
  62.678385
  62.971906
  63.207893
  62.862348
  63.396507
  63.242300
  62.713729
  63.140197
  62.967301
  63.591210
  64.066815
  62.922224
  63.479744
  63.903992
  63.237953
  62.899561
  63.466062
  63.251447
  63.719374
  63.366931
  63.565059
  63.171086
  62.937895
  63.956205
  63.131575
  64.302841
  63.494294
  63.876401
  63.704094
  63.086933
  63.452136
  63.662032
  64.068204
  63.379690
  64.708365
  63.873276
  64.356319
  63.332664
  64.284060
  64.136365
  63.797180
  64.051653
  64.217721
  63.640795
  63.568616
  64.625444
  63.918730
  64.193918
  63.300886
  64.409542
  63.579187
  63.910597
  64.362358
  63.524601
  65.439283
  63.895938
  64.027111
  64.330895
  65.216460
  64.533602
  63.833271
  64.152867
  64.719116
  63.769505
  63.780971
  64.489414
  64.702420
  63.410422
  64.695526
  64.067397
  63.644498
  64.272512
  64.653996
  64.639327
  64.846543
  64.024543
  64.905112
  64.387877
  64.824744
  64.732255
  63.961607
  64.303628
  64.996692
  64.278111
  64.928348
  64.544290
  64.875594
  65.094662
  64.229249
  64.656272
  64.597520
  65.203529
  65.015228
  65.159195
  64.533377
  64.247886
  65.098728
  65.163546
  64.759933
  65.289486
  64.493408
  65.200757
  64.147416
  64.514187
  64.887475
  65.275967
  64.788734
  65.453686
  64.740609
  65.517100
  64.699971
  65.028148
  65.407569
  65.592164
  65.948038
  65.193046
  65.630163
  64.997954
  65.555710
  64.744045
  65.754399
  64.941546
  65.170991
  65.697665
  65.280492
  64.700523
  64.866624
  65.696014
  65.258741
  65.904248
  65.940020
  65.428187
  65.192589
  65.860264
  65.814026
  65.131483
  66.082113
  66.045640
  66.002079
  65.561439
  66.096792
  66.026890
  65.455678
  65.081901
  67.058899
  66.178429
  65.729989
  66.133267
  66.228842
  65.189690
  65.396577
  65.701106
  65.359402
  66.345404
  65.817358
  65.693916
  66.276221
  66.395046
  65.651111
  65.962297
  65.609864
  66.534666
  66.468451
  66.411149
  66.533353
  65.891772
  65.615083
  66.090017
  66.543470
  66.713378
  65.858328
  66.638207
  66.241579
  65.823918
  66.842563
  66.687350
  66.125689
  66.748158
  66.906203
  66.104777
  65.896968
  66.343901
  66.304745
  66.835056
  66.065754
  67.040644
  67.040767
  66.476954
  66.938504
  65.962838
  67.060810
  66.149860
  66.346045
  67.216123
  66.317707
  66.599782
  67.184253
  67.781657
  67.112759
  67.341609
  66.306822
  66.566418
  67.333998
  66.745695
  67.233699
  67.385799
  66.567787
  66.524264
  67.395297
  66.828777
  67.549892
  67.577663
  66.792559
  67.420603
  66.964192
  66.579370
  66.811683
  67.559113
  67.710621
  66.776854
  67.865828
  67.849100
  66.828127
  67.074001
  67.028055
  67.702650
  66.944222
  67.205529
  67.032659
  66.504345
  67.852793
  68.657388
  67.224396
  68.057560
  68.200058
  68.004438
  67.911258
  67.334953
  68.245713
  68.012791
  67.274096
  67.134939
  68.263940
  67.505500
  68.099656
  67.281222
  68.537185
  67.304441
  68.415366
  67.521798
  67.645907
  68.235365
  67.517033
  68.689526
  68.438669
  68.585847
  67.765631
  67.357577
  68.390565
  68.751895
  67.687198
  68.803127
  68.687323
  67.638128
  67.757302
  67.834352
  68.486036
  68.993854
  67.730966
  67.935508
  67.754518
  68.949192
  68.685462
  67.985315
  68.921962
  67.957272
  68.122704
  68.865604
  69.109182
  69.013531
  69.225812
  68.200216
  68.267279
  69.033943
  69.312993
  68.201452
  68.078404
  69.253138
  67.468909
  68.169941
  68.422044
  69.499507
  69.174403
  68.164770
  69.464234
  68.595827
  68.476178
  69.281819
  69.355684
  69.451965
  68.393056
  69.620352
  68.122098
  68.760774
  69.718714
  68.734164
  69.499242
  68.275266
  69.579808
  69.809678
  68.893233
  68.664168
  69.623128
  67.503092
  69.799698
  68.581508
  70.061393
  68.524406
  69.983958
  69.054732
  69.264773
  69.762426
  68.923737
  70.193660
  69.899542
  69.185376
  68.821885
  70.138017
  70.324352
  70.107298
  69.249501
  69.298794
  70.382483
  68.651797
  70.145314
  69.102916
  69.268874
  70.575352
  69.446656
  70.262411
  68.999147
  70.352260
  68.951255
  70.496887
  69.563296
  69.405179
  70.728804
  70.412514
  69.298380
  70.643662
  69.773892
  70.926989
  70.549883
  69.756311
  68.239402
  70.852189
  69.701156
  69.586359
  70.689498
  68.951328
  69.905891
  70.798970
  70.689150
  71.271505
  70.014944
  69.328796
  70.998276
  70.835257
  69.864984
  69.624114
  71.236891
  70.171580
  68.799876
  71.136129
  70.960653
  69.835438
  71.483004
  70.272195
  70.012781
  71.366612
  70.294221
  70.197183
  69.225352
  71.123546
  71.278229
  71.266871
  70.437449
  71.742853
  71.242131
  69.766675
  71.492944
  70.569145
  70.115227
  70.379310
  71.401088
  71.725901
  68.656264
  72.005444
  71.628639
  71.972635
  70.673708
  70.776038
  70.459684
  71.517972
  71.854388
  69.858496
  70.914108
  71.766763
  71.776070
  70.900314
  71.701504
  72.176349
  70.832603
  70.370318
  71.033037
  71.982344
  71.796648
  72.178275
  70.674582
  71.816523
  71.175239
  71.925041
  70.982592
  72.151641
  71.165202
  72.314902
  72.435158
  72.340823
  71.318488
  70.632411
  72.062081
  71.477139
  71.156201
  72.193726
  71.465783
  71.339256
  72.969815
  70.915439
  72.459414
  72.345897
  72.647461
  71.654484
  72.385475
  70.763004
  71.321084
  71.516232
  71.809783
  71.705859
  72.610559
  73.031013
  72.467464
  71.019016
  72.796352
  71.993070
  73.043587
  72.588946
  71.683799
  71.884509
  72.810800
  71.467303
  72.918013
  72.133005
  72.090641
  72.786528
  73.621460
  73.149541
  72.259934
  73.070724
  71.846868
  73.810734
  72.928061
  72.040572
  72.229083
  73.479854
  72.430984
  73.234339
  71.727801
  73.093162
  73.264549
  73.495286
  71.246371
  71.526063
  72.227500
  72.596294
  73.794779
  73.358992
  72.147258
  73.220506
  72.779075
  73.517827
  73.431726
  72.580819
  72.764028
  72.514324
  73.528732
  72.403296
  72.881239
  74.624087
  73.798527
  73.542488
  73.605262
  72.415805
  73.074060
  73.787039
  73.690188
  72.313899
  73.769775
  74.068689
  72.970140
  72.725899
  73.728682
  72.607372
  73.200709
  73.813523
  73.837783
  72.951583
  73.343230
  74.771202
  73.856343
  72.905881
  73.944779
  74.149194
  73.905609
  72.934614
  73.423050
  73.382287
  73.197791
  74.022169
  73.561571
  73.184288
  73.983172
  74.244356
  73.137960
  74.153411
  74.042944
  74.631698
  74.021136
  74.088316
  73.579336
  73.407072
  73.471479
  74.081984
  73.421949
  73.580441
  74.338911
  74.013983
  74.021156
  73.666087
  73.559364
  74.321135
  73.532486
  73.924516
  73.664943
  73.861962
  73.778344
  74.563311
  73.486317
  74.498647
  73.529441
  73.735840
  73.930181
  74.195021
  73.735486
  73.901040
  73.659973
  73.382643
  73.571551
  73.553343
  73.518645
  74.162114
  74.838565
  73.860805
  73.319453
  73.451083
  74.561534
  73.494509
  73.220073
  74.336428
  74.855687
  73.380392
  74.129147
  74.122642
  75.353907
  73.676616