# vtk DataFile Version 2.0
FSI_Simulation
ASCII

DATASET UNSTRUCTURED_GRID
POINTS 2042 double
  2.500000  0.410000  0.000000
  2.450000  0.410000  0.000000
  2.500000  0.358750  0.000000
  2.455000  0.345150  0.000000
  2.400000  0.410000  0.000000
  2.500000  0.307500  0.000000
  2.409170  0.352960  0.000000
  2.425000  0.303110  0.000000
  2.350000  0.410000  0.000000
  2.359860  0.354270  0.000000
  2.500000  0.256250  0.000000
  2.450000  0.259810  0.000000
  2.375000  0.303110  0.000000
  2.400000  0.259810  0.000000
  2.300000  0.410000  0.000000
  2.500000  0.205000  0.000000
  2.325000  0.303110  0.000000
  2.425000  0.216510  0.000000
  2.300000  0.346410  0.000000
  2.350000  0.259810  0.000000
  2.375000  0.216510  0.000000
  2.450000  0.173210  0.000000
  2.275000  0.303110  0.000000
  2.250000  0.410000  0.000000
  2.300000  0.259810  0.000000
  2.500000  0.153750  0.000000
  2.400000  0.173210  0.000000
  2.250000  0.346410  0.000000
  2.325000  0.216510  0.000000
  2.350000  0.173210  0.000000
  2.429170  0.133880  0.000000
  2.250000  0.259810  0.000000
  2.225000  0.303110  0.000000
  2.275000  0.216510  0.000000
  2.200000  0.410000  0.000000
  2.197270  0.363510  0.000000
  2.375000  0.129900  0.000000
  2.500000  0.102500  0.000000
  2.300000  0.173210  0.000000
  2.450000  0.086600  0.000000
  2.325000  0.129900  0.000000
  2.200000  0.259810  0.000000
  2.225000  0.216510  0.000000
  2.400000  0.086600  0.000000
  2.250000  0.173210  0.000000
  2.170490  0.306770  0.000000
  2.150000  0.410000  0.000000
  2.350000  0.086600  0.000000
  2.500000  0.051250  0.000000
  2.275000  0.129900  0.000000
  2.135420  0.358250  0.000000
  2.429170  0.044630  0.000000
  2.175000  0.216510  0.000000
  2.300000  0.086600  0.000000
  2.150000  0.259810  0.000000
  2.200000  0.173210  0.000000
  2.375000  0.043300  0.000000
  2.225000  0.129900  0.000000
  2.112500  0.313250  0.000000
  2.100000  0.410000  0.000000
  2.325000  0.043300  0.000000
  2.250000  0.086600  0.000000
  2.500000  0.000000  0.000000
  2.450000  0.000000  0.000000
  2.125000  0.216510  0.000000
  2.400000  0.000000  0.000000
  2.150000  0.173210  0.000000
  2.075000  0.366700  0.000000
  2.175000  0.129900  0.000000
  2.275000  0.043300  0.000000
  2.087500  0.269950  0.000000
  2.350000  0.000000  0.000000
  2.200000  0.086600  0.000000
  2.050000  0.410000  0.000000
  2.300000  0.000000  0.000000
  2.050000  0.323400  0.000000
  2.225000  0.043300  0.000000
  2.100000  0.173210  0.000000
  2.125000  0.129900  0.000000
  2.062500  0.226650  0.000000
  2.150000  0.086600  0.000000
  2.025000  0.366700  0.000000
  2.250000  0.000000  0.000000
  2.175000  0.043300  0.000000
  2.025000  0.280100  0.000000
  2.000000  0.410000  0.000000
  2.000000  0.323400  0.000000
  2.200000  0.000000  0.000000
  2.070830  0.133290  0.000000
  2.100000  0.086600  0.000000
  2.037500  0.183350  0.000000
  2.125000  0.043300  0.000000
  1.975000  0.366700  0.000000
  2.000000  0.236790  0.000000
  2.150000  0.000000  0.000000
  1.975000  0.280100  0.000000
  1.950000  0.410000  0.000000
  2.050000  0.086600  0.000000
  1.950000  0.323400  0.000000
  2.012500  0.140050  0.000000
  2.075000  0.043300  0.000000
  1.975000  0.193490  0.000000
  2.100000  0.000000  0.000000
  1.925000  0.366700  0.000000
  1.950000  0.236790  0.000000
  1.925000  0.280100  0.000000
  2.000000  0.086600  0.000000
  1.900000  0.410000  0.000000
  2.025000  0.043300  0.000000
  1.900000  0.323400  0.000000
  1.950000  0.150190  0.000000
  2.050000  0.000000  0.000000
  1.925000  0.193490  0.000000
  1.900000  0.236790  0.000000
  1.875000  0.366700  0.000000
  1.875000  0.280100  0.000000
  1.975000  0.043300  0.000000
  1.937500  0.096750  0.000000
  2.000000  0.000000  0.000000
  1.850000  0.410000  0.000000
  1.902380  0.145780  0.000000
  1.850000  0.323400  0.000000
  1.875000  0.193490  0.000000
  1.850000  0.236790  0.000000
  1.820830  0.365370  0.000000
  1.925000  0.043300  0.000000
  1.950000  0.000000  0.000000
  1.800000  0.410000  0.000000
  1.850000  0.150190  0.000000
  1.877180  0.088810  0.000000
  1.810710  0.280600  0.000000
  1.800000  0.323400  0.000000
  1.820830  0.195410  0.000000
  1.800000  0.236790  0.000000
  1.900000  0.000000  0.000000
  1.875360  0.035430  0.000000
  1.825000  0.106890  0.000000
  1.800000  0.150190  0.000000
  1.750000  0.410000  0.000000
  1.750000  0.358750  0.000000
  1.750000  0.307500  0.000000
  1.750000  0.256250  0.000000
  1.825000  0.043300  0.000000
  1.850000  0.000000  0.000000
  1.750000  0.205000  0.000000
  1.793300  0.076870  0.000000
  1.750000  0.153750  0.000000
  1.700640  0.410000  0.000000
  1.704300  0.327190  0.000000
  1.750000  0.102500  0.000000
  1.800000  0.000000  0.000000
  1.706240  0.242410  0.000000
  1.676060  0.366700  0.000000
  1.679550  0.284150  0.000000
  1.704500  0.168810  0.000000
  1.750000  0.051250  0.000000
  1.682040  0.198780  0.000000
  1.655740  0.327710  0.000000
  1.651490  0.410000  0.000000
  1.750000  0.000000  0.000000
  1.656690  0.241750  0.000000
  1.703750  0.082910  0.000000
  1.678980  0.125940  0.000000
  1.627030  0.366700  0.000000
  1.631170  0.284620  0.000000
  1.654610  0.169080  0.000000
  1.632070  0.198270  0.000000
  1.607330  0.328120  0.000000
  1.602560  0.410000  0.000000
  1.700280  0.000000  0.000000
  1.675600  0.043300  0.000000
  1.655160  0.082380  0.000000
  1.606810  0.241470  0.000000
  1.630810  0.125620  0.000000
  1.578220  0.366700  0.000000
  1.582990  0.284920  0.000000
  1.604730  0.168150  0.000000
  1.578920  0.210800  0.000000
  1.650920  0.000000  0.000000
  1.559000  0.328320  0.000000
  1.553870  0.410000  0.000000
  1.626430  0.043300  0.000000
  1.606660  0.082260  0.000000
  1.556930  0.242380  0.000000
  1.582820  0.125810  0.000000
  1.529630  0.366700  0.000000
  1.534940  0.284960  0.000000
  1.555320  0.166880  0.000000
  1.601940  0.000000  0.000000
  1.530950  0.199810  0.000000
  1.577650  0.043300  0.000000
  1.510670  0.328200  0.000000
  1.505400  0.410000  0.000000
  1.558080  0.082770  0.000000
  1.534730  0.126670  0.000000
  1.507460  0.243800  0.000000
  1.481280  0.366700  0.000000
  1.486910  0.284640  0.000000
  1.506480  0.166500  0.000000
  1.553350  0.000000  0.000000
  1.529250  0.043300  0.000000
  1.482130  0.200990  0.000000
  1.462240  0.327690  0.000000
  1.457160  0.410000  0.000000
  1.509220  0.083990  0.000000
  1.486020  0.128110  0.000000
  1.458500  0.244760  0.000000
  1.433170  0.366700  0.000000
  1.438620  0.283990  0.000000
  1.458930  0.158770  0.000000
  1.505150  0.000000  0.000000
  1.481250  0.043300  0.000000
  1.434180  0.201480  0.000000
  1.459870  0.085670  0.000000
  1.413590  0.326890  0.000000
  1.409170  0.410000  0.000000
  1.409940  0.244800  0.000000
  1.385300  0.366700  0.000000
  1.389560  0.283370  0.000000
  1.409090  0.158420  0.000000
  1.457350  0.000000  0.000000
  1.433650  0.043300  0.000000
  1.386550  0.201040  0.000000
  1.410050  0.086600  0.000000
  1.364750  0.326450  0.000000
  1.361420  0.410000  0.000000
  1.361460  0.243860  0.000000
  1.337670  0.366700  0.000000
  1.409950  0.000000  0.000000
  1.338650  0.284240  0.000000
  1.386460  0.043300  0.000000
  1.354150  0.119670  0.000000
  1.313920  0.410000  0.000000
  1.316290  0.328550  0.000000
  1.332940  0.164270  0.000000
  1.312360  0.242750  0.000000
  1.362970  0.000000  0.000000
  1.290300  0.366700  0.000000
  1.295390  0.283330  0.000000
  1.339680  0.043300  0.000000
  1.325730  0.078680  0.000000
  1.304410  0.123360  0.000000
  1.266670  0.410000  0.000000
  1.266740  0.323400  0.000000
  1.272670  0.239000  0.000000
  1.283210  0.168120  0.000000
  1.316400  0.000000  0.000000
  1.243180  0.366700  0.000000
  1.246180  0.281190  0.000000
  1.293330  0.043300  0.000000
  1.277840  0.081590  0.000000
  1.256410  0.126460  0.000000
  1.219690  0.410000  0.000000
  1.219750  0.323400  0.000000
  1.233390  0.170720  0.000000
  1.222230  0.237350  0.000000
  1.270260  0.000000  0.000000
  1.196320  0.366700  0.000000
  1.247400  0.043300  0.000000
  1.196390  0.280100  0.000000
  1.229040  0.084940  0.000000
  1.205650  0.129050  0.000000
  1.189490  0.207370  0.000000
  1.172960  0.410000  0.000000
  1.173020  0.323400  0.000000
  1.224540  0.000000  0.000000
  1.181510  0.158020  0.000000
  1.201900  0.043300  0.000000
  1.149720  0.366700  0.000000
  1.179360  0.086600  0.000000
  1.143430  0.291070  0.000000
  1.144660  0.247780  0.000000
  1.126490  0.410000  0.000000
  1.142770  0.189580  0.000000
  1.179250  0.000000  0.000000
  1.134770  0.140320  0.000000
  1.156830  0.043300  0.000000
  1.103400  0.366700  0.000000
  1.100860  0.316520  0.000000
  1.099450  0.268150  0.000000
  1.103580  0.220000  0.000000
  1.080300  0.410000  0.000000
  1.096330  0.172140  0.000000
  1.134410  0.000000  0.000000
  1.100760  0.105310  0.000000
  1.058360  0.324420  0.000000
  1.099400  0.056460  0.000000
  1.059350  0.282410  0.000000
  1.062400  0.233330  0.000000
  1.051490  0.361960  0.000000
  1.062400  0.206670  0.000000
  1.062400  0.140000  0.000000
  1.034380  0.410000  0.000000
  1.090000  0.000000  0.000000
  1.032380  0.305960  0.000000
  1.027830  0.333570  0.000000
  1.033760  0.246670  0.000000
  1.028220  0.281830  0.000000
  1.059860  0.078570  0.000000
  1.030770  0.220170  0.000000
  1.033760  0.193330  0.000000
  1.015410  0.368300  0.000000
  1.056850  0.040910  0.000000
  1.013850  0.293330  0.000000
  1.011380  0.313820  0.000000
  1.013850  0.280000  0.000000
  1.013850  0.266670  0.000000
  1.013850  0.240000  0.000000
  1.012290  0.252000  0.000000
  1.025480  0.152840  0.000000
  1.013850  0.226670  0.000000
  1.028350  0.124560  0.000000
  1.002130  0.333160  0.000000
  1.012290  0.214670  0.000000
  1.013850  0.200000  0.000000
  1.032380  0.094040  0.000000
  1.000000  0.300000  0.000000
  1.012290  0.188000  0.000000
  1.013850  0.173330  0.000000
[...]
POINT_DATA 2042
SCALARS pressure double
LOOKUP_TABLE default
  0.191190
  0.028102
  -0.065887
  -0.034483
  0.266418
  0.124853
  0.149264
  0.000650
  -0.099248
  0.071729
  0.019021
  0.019334
  0.051754
  0.037841
  -0.285516
  -0.037977
  0.106070
  0.043147
  -0.069216
  0.112759
  0.094529
  0.053516
  0.242167
  0.448209
  0.169940
  0.034549
  0.087589
  0.193539
  0.141101
  0.126271
  0.054122
  0.145878
  0.123685
  0.156695
  0.324727
  0.338007
  0.114494
  -0.008090
  0.156880
  0.054161
  0.148103
  0.213946
  0.230306
  0.137885
  0.205443
  0.343306
  0.092964
  0.162390
  -0.033867
  0.186134
  0.246383
  0.151006
  0.241183
  0.191682
  0.272151
  0.224771
  0.173073
  0.209743
  0.279382
  0.382464
  0.175213
  0.214634
  -0.183679
  0.074938
  0.304398
  0.148660
  0.271432
  0.406353
  0.252331
  0.197875
  0.286749
  0.175073
  0.250711
  0.388337
  0.196549
  0.398256
  0.223900
  0.303819
  0.279867
  0.333618
  0.276169
  0.410483
  0.228999
  0.249192
  0.363557
  0.412238
  0.399469
  0.253014
  0.314315
  0.303366
  0.342231
  0.279876
  0.411929
  0.374949
  0.288050
  0.377343
  0.444485
  0.323613
  0.421089
  0.351065
  0.301712
  0.381949
  0.302781
  0.434654
  0.397314
  0.411909
  0.338012
  0.510223
  0.329154
  0.440449
  0.400790
  0.319316
  0.404812
  0.423793
  0.484026
  0.421281
  0.317036
  0.433653
  0.321945
  0.556208
  0.424978
  0.437901
  0.433206
  0.422869
  0.395877
  0.412510
  0.258348
  0.257557
  0.470388
  0.420609
  0.472265
  0.471256
  0.423887
  0.450893
  0.764987
  0.582268
  0.443707
  0.451642
  0.310459
  0.382252
  0.443937
  0.475997
  0.435823
  0.481593
  0.490557
  0.476873
  0.470203
  0.532957
  0.489774
  0.447535
  0.275731
  0.498103
  0.595768
  0.524902
  0.495085
  0.361035
  0.517643
  0.564001
  0.572137
  0.309868
  0.550127
  0.486573
  0.530767
  0.603899
  0.568058
  0.543936
  0.562267
  0.592242
  0.600944
  0.524834
  0.589603
  0.561229
  0.584088
  0.581176
  0.610678
  0.588815
  0.575187
  0.600342
  0.576616
  0.617811
  0.622664
  0.602329
  0.592004
  0.612492
  0.603332
  0.631793
  0.617707
  0.605300
  0.612482
  0.626553
  0.611665
  0.640461
  0.642817
  0.621571
  0.637630
  0.638976
  0.650019
  0.640791
  0.626568
  0.633798
  0.632432
  0.651373
  0.662916
  0.664275
  0.646464
  0.665223
  0.661157
  0.669777
  0.668242
  0.650284
  0.655494
  0.649156
  0.665826
  0.694762
  0.685337
  0.687376
  0.688777
  0.690442
  0.692064
  0.682757
  0.685979
  0.672005
  0.694796
  0.696770
  0.708166
  0.710697
  0.701607
  0.706384
  0.793884
  0.724196
  0.717945
  0.720849
  0.749671
  0.733799
  0.732073
  0.720685
  0.727658
  0.736422
  0.743774
  0.690580
  0.755163
  0.733249
  0.784899
  0.753037
  0.754256
  0.742106
  0.780285
  0.753116
  0.755367
  0.739368
  0.759975
  0.755362
  0.793838
  0.795438
  0.760630
  0.736361
  0.843439
  0.767643
  0.747164
  0.794888
  0.787390
  0.716632
  0.742974
  0.869010
  0.794322
  0.878081
  0.792452
  0.805998
  0.804984
  0.696203
  0.821618
  0.810400
  0.906959
  0.784909
  0.909036
  0.859446
  0.633658
  0.766991
  0.829064
  0.789895
  0.788597
  0.697735
  0.773502
  0.643962
  0.798234
  0.859559
  0.626660
  0.826664
  0.850358
  0.797803
  0.837062
  0.757389
  0.894738
  0.708428
  0.822108
  0.843074
  0.855752
  0.854088
  0.769031
  0.863033
  0.836294
  0.790883
  0.485417
  0.876951
  0.855035
  0.876493
  0.870635
  0.869685
  0.872000
  0.832455
  0.870796
  0.794340
  0.959896
  0.867404
  0.855354
  0.717105
  0.874587
  0.844266
  0.841733
  0.878390
  0.879949
  0.879609
  0.848995
  0.879322
  0.614844
  0.843729
  0.897533
  0.878187
  0.516957
  0.910278
  0.838214
  0.877308
  0.892747
  0.871265
  0.831343
  0.865098
  0.814341
  0.888754
  0.861247
  0.890160
  0.860425
  0.859681
  0.889135
  0.758710
  0.884598
  0.856076
  0.893494
  0.884163
  0.894096
  0.895878
  0.849240
  0.868422
  0.883529
  0.826762
  0.876301
  0.893850
  0.822071
  0.893483
  0.900361
  0.898846
  0.881404
  0.870448
  0.879923
  0.887690
  0.907138
  0.895754
  0.884308
  0.904481
  0.851746
  0.867091
  0.907754
  0.881081
  0.902995
  0.848427
  0.890543
  0.897775
  0.919493
  0.903894
  0.851431
  0.911656
  0.909961
  0.884351
  0.914471
  0.894949
  0.918820
  0.901675
  0.872261
  0.911432
  0.907880
  0.915546
  0.960652
  0.882592
  0.918300
  0.768493
  0.897242
  0.994885
  0.904667
  0.892722
  0.910833
  0.927196
  1.063045
  0.916279
  0.919713
  0.873700
  0.922771
  0.900913
  0.925100
  0.909056
  0.914196
  0.960816
  0.899917
  0.923262
  0.920818
  0.927085
  0.929228
  0.961720
  0.905845
  0.913094
  0.919150
  0.910759
  0.924030
  0.935319
  0.928229
  0.931382
  0.907301
  0.934401
  1.053711
  0.935393
  0.924096
  0.928111
  0.920542
  0.919751
  0.935571
  0.933675
  0.934016
  0.938137
  0.940845
  0.931972
  0.930051
  0.933866
  0.885671
  0.937385
  0.928989
  0.941904
  0.940994
  0.935987
  0.943418
  0.944387
  0.884497
  0.945760
  0.939343
  0.937784
  0.942863
  0.918661
  0.945857
  0.937659
  0.947644
  0.949813
  0.985080
  0.949915
  0.967817
  0.952194
  0.946058
  0.948300
  0.951131
  1.009907
  0.947260
  0.954639
  0.947641
  0.954018
  0.954275
  0.955997
  0.955514
  0.954059
  0.956399
  0.954311
  0.959107
  0.954034
  0.955474
  0.960250
  0.912570
  0.961755
  0.960988
  1.008958
  0.960317
  0.961139
  0.962580
  0.964827
  0.966356
  0.963393
  0.967111
  0.958233
  0.982159
  0.972693
  0.966874
  0.969264
  0.965794
  0.978204
  0.968213
  0.970246
  0.969302
  0.972839
  0.974515
  0.972960
  0.973152
  0.995682
  1.010460
  0.972807
  0.970912
  0.976317
  0.974483
  0.979673
  0.978807
  0.979983
  0.979369
  0.971179
  0.966529
  0.978844
  0.977737
  0.981887
  0.984094
  0.980368
  0.986667
  0.985669
  0.986553
  0.981567
  0.910338
  0.984298
  0.992403
  0.987104
  0.981577
  0.990032
  0.992798
  0.988537
  0.993650
  0.993289
  0.985420
  0.979302
  0.991190
  0.956890
  0.988574
  0.995154
  0.992485
  0.997866
  1.001058
  0.999627
  0.998947
  0.980529
  0.984250
  0.989020
  0.996141
  0.998575
  0.999933
  1.003040
  0.965981
  1.007132
  0.995557
  1.008220
  0.916817
  1.006959
  0.988492
  0.980033
  1.004509
  0.999018
  1.004290
  0.972747
  1.008305
  1.007236
  1.011962
  1.016002
  1.013840
  1.013964
  0.996147
  0.992987
  1.053390
  0.999990
  1.009107
  1.012329
  1.016677
  1.021424
  1.008539
  1.023220
  0.890624
  1.021632
  1.002313
  1.009597
  0.993386
  1.018180
  1.016093
  1.021792
  1.026247
  1.031825
  1.029013
  0.981045
  1.028730
  1.020241
  1.004895
  0.989631
  1.025475
  1.030377
  1.036519
  1.019194
  1.039865
  1.009381
  1.036910
  1.015364
  1.021574
  1.001662
  1.032533
  1.018031
  1.034593
  1.027937
  1.040234
  1.047688
  1.020184
  1.045433
  1.000339
  1.020808
  1.045009
  0.997074
  1.033067
  1.013625
  1.044005
  1.037555
  1.051954
  1.057657
  1.029835
  1.036965
  1.053407
  1.011678
  1.049588
  1.024009
  1.038202
  1.047807
  1.054405
  1.065092
  1.064016
  1.117536
  1.017097
  1.060770
  1.046537
  1.021956
  1.033998
  1.018049
  1.066797
  1.057136
  1.051300
  1.130713
  1.033934
  1.078129
  1.042217
  1.047739
  1.071453
  1.018294
  1.064005
  1.053991
  1.067878
  1.059933
  1.082467
  1.085102
  1.083706
  1.078039
  1.052425
  1.009834
  1.063928
  1.046943
  1.069432
  1.061121
  1.082081
  1.038096
  1.097884
  0.969398
  1.062966
  1.091427
  1.022575
  1.081184
  1.059400
  1.070377
  1.080892
  1.063382
  1.100345
  1.006725
  1.084084
  1.105515
  1.098012
  1.078383
  1.074639
  1.004647
  1.057280
  1.080678
  1.071208
  1.043896
  1.095825
  1.117197
  1.118620
  1.066538
  1.110813
  1.045280
  1.099577
  1.073561
  1.051811
  1.079640
  1.092363
  1.072420
  1.115370
  1.127723
  1.083040
  1.040176
  1.115200
  1.072067
  1.093616
  1.066780
  1.045085
  1.107366
  1.089685
  1.077852
  1.136047
  1.053333
  1.075097
  1.132186
  0.890124
  1.115711
  1.042119
  1.084188
  1.058494
  1.086381
  1.101588
  1.127203
  1.076919
  1.042287
  1.147972
  1.135356
  1.106847
  1.075240
  1.074568
  1.095905
  1.080880
  1.049237
  1.116910
  0.884119
  1.103380
  1.148898
  1.077217
  1.151998
  1.132977
  1.039247
  1.093986
  1.077612
  1.063340
  1.089961
  1.107918
  1.137034
  1.080576
  1.163222
  1.154488
  1.036888
  1.119138
  1.079520
  1.075428
  1.080914
  1.049856
  1.099644
  1.123560
  1.080574
  1.159662
  1.073580
  1.020477
  1.170510
  1.147185
  1.029446
  1.101883
  1.066218
  1.091489
  1.111346
  1.143345
  1.177283
  1.029939
  1.169566
  1.129262
  1.082989
  1.071727
  1.048430
  1.100152
  1.082310
  1.126683
  1.083940
  1.167999
  1.183979
  1.074186
  1.026496
  1.157476
  1.024302
  1.105697
  1.063412
  1.088586
  1.111306
  1.147688
  1.060915
  1.190006
  1.179063
  1.083599
  1.000571
  1.133568
  1.064836
  1.081329
  1.097205
  1.077611
  1.125967
  1.173712
  1.041139
  1.193471
  1.074100
  0.937661
  1.160985
  1.010020
  1.105800
  1.083361
  1.107295
  1.146178
  1.058103
  1.201054
  0.989671
  1.179043
  1.133588
  1.060617
  1.075935
  1.028797
  1.090079
  1.069161
  1.120659
  1.173834
  1.049276
  1.199865
  1.063651
  1.154476
  1.000663
  1.036729
  1.099045
  1.022790
  1.052436
  1.074233
  1.098148
  1.140082
  1.200256
  1.174830
  1.021535
  1.010912
  1.122510
  1.053113
  1.058882
  1.063294
  1.029094
  1.079208
  1.055975
  1.108377
  1.167493
  1.051918
  1.195181
  1.019181
  1.141974
  1.083885
  1.011335
  1.044079
  1.034624
  1.060534
  1.082713
  1.123894
  1.196426
  1.007314
  1.040023
  1.156889
  1.021912
  1.101924
  1.044813
  1.011581
  1.060227
  1.088626
  1.143216
  1.043683
  1.186558
  0.943298
  1.110681
  1.059671
  0.742262
  0.994842
  1.015064
  1.060429
  1.043007
  1.098301
  1.166556
  0.990683
  1.132806
  1.068657
  1.032516
  1.014234
  0.988916
  1.112032
  0.988443
  1.040097
  1.057823
  1.028664
  1.149872
  1.032305
  1.077701
  0.944337
  1.018244
  0.978212
  0.983419
  1.014862
  0.971057
  1.023503
  1.031669
  1.116253
  1.053802
  1.089203
  1.021581
  1.021951
  0.960919
  0.969260
  0.957145
  1.012922
  1.017395
  1.019071
  1.041083
  1.012427
  1.094770
  1.028656
  0.965100
  0.942037
  0.953389
  0.944361
  0.998772
  0.997332
  1.022823
  0.997226
  1.045459
  0.947137
  1.006956
  0.948966
  0.906016
  0.924024
  0.982888
  0.972487
  0.991522
  0.950426
  0.934628
  0.989727
  0.920276
  0.874446
  0.936506
  0.894345
  0.917388
  0.936552
  0.969045
  0.973641
  0.958216
  0.940230
  0.901848
  0.846811
  0.942626
  0.986703
  1.011933
  0.869490
  0.892085
  1.012345
  0.884335
  0.790871
  0.914273
  0.954663
  0.918251
  0.969246
  0.793944
  0.918958
  0.892723
  0.835591
  0.761777
  0.982340
  0.952377
  0.736375
  0.925150
  0.851909
  0.964984
  0.977377
  0.728471
  0.916820
  0.862422
  0.765692
  0.899230
  0.927067
  0.881495
  0.954705
  0.637166
  0.639260
  0.907602
  0.934488
  0.563294
  0.874076
  0.720354
  0.590454
  0.893365
  0.817113
  0.633058
  0.782137
  0.953743
  0.837249
  0.892007
  0.903192
  0.986315
  0.453895
  0.475863
  0.905905
  0.932543
  0.847378
  0.718089
  0.496232
  0.604098
  0.445171
  0.930850
  0.476321
  1.046993
  0.903167
  0.702311
  0.861695
  0.870881
  0.794210
  0.780885
  0.454091
  0.464854
  0.614642
  0.476885
  0.936728
  0.899628
  0.470676
  0.953114
  0.547624
  0.892467
  0.552451
  0.917716
  0.827989
  0.713468
  0.597026
  0.891722
  0.618094
  0.753511
  0.921950
  0.660342
  0.869469
  0.629564
  0.995965
  0.651897
  0.862082
  0.831959
  0.775126
  0.635932
  0.926512
  0.669345
  0.918861
  0.893840
  0.955562
  0.669897
  0.685645
  0.931311
  0.788628
  0.908613
  0.829081
  0.728477
  0.743099
  0.865884
  0.973718
  0.673844
  0.712952
  0.941377
  0.885018
  0.701361
  0.694866
  0.727099
  0.722243
  0.842486
  0.790628
  0.918714
  0.901528
  0.959561
  0.860619
  0.712340
  0.772124
  0.934041
  0.815172
  0.758842
  0.907536
  0.741778
  0.765582
  0.879669
  0.902983
  0.837390
  0.785089
  0.949235
  0.747011
  0.884882
  0.769129
  0.759092
  0.858061
  0.757644
  0.769916
  0.817496
  0.923260
  0.909496
  0.869866
  0.983527
  0.772825
  0.829946
  0.775020
  0.904441
  0.802506
  0.801699
  0.895130
  0.855286
  1.051050
  0.782605
  0.952703
  0.893589
  0.936489
  0.827865
  0.810079
  0.819890
  0.880926
  0.843787
  0.980542
  0.988388
  0.828245
  0.832059
  0.917347
  0.923563
  0.884035
  0.826630
  0.857444
  0.914076
  1.116149
  0.844751
  0.835593
  0.846910
  1.022499
  0.917495
  0.876431
  0.848502
  0.949237
  1.001494
  0.905953
  0.857112
  0.950550
  0.921904
  0.916781
  0.871065
  0.918496
  0.851240
  0.877233
  0.875333
  0.943849
  0.902606
  0.954246
  0.862199
  0.890851
  0.876388
  0.918558
  0.864932
  0.949382
  0.901637
  0.907915
  0.867598
  0.878343
  0.952635
  0.920597
  0.878384
  0.876370
  0.965329
  0.896691
  0.941867
  0.902538
  0.935083
  0.960978
  0.923613
  0.884692
  0.964837
  0.922801
  0.919132
  0.943015
  0.935393
  0.887103
  0.924480
  0.902884
  0.970278
  0.927037
  0.992799
  0.939648
  0.904414
  0.920835
  0.989687
  1.067381
  0.927033
  0.974547
  0.933340
  0.946795
  0.952437
  0.995360
  0.945697
  0.929659
  0.997191
  0.937156
  0.935961
  0.952686
  0.971612
  0.937542
  1.003634
  1.013002
  0.940808
  0.956145
  0.995252
  1.014633
  0.958844
  1.006994
  1.012882
  1.009310
  0.959314
  1.023587
  1.029531
  0.968435
  0.970025
  1.017212
  1.022443
  0.984889
  1.041002
  1.029195
  0.917052
  0.968141
  0.978561
  0.970675
  1.027094
  0.994812
  0.982739
  1.054889
  1.047258
  0.983696
  1.004792
  0.975838
  1.044854
  1.031182
  1.062968
  1.050952
  1.002930
  0.980212
  1.021910
  1.075267
  1.068162
  0.990614
  1.043874
  1.046912
  0.978843
  1.052174
  1.083302
  1.028305
  1.088843
  1.100223
  1.011511
  0.980108
  1.058521
  1.051959
  1.092657
  0.991863
  1.077439
  1.045047
  1.067935
  1.109258
  0.983565
  1.109137
  0.935545
  1.037474
  1.115926
  1.015779
  1.087586
  1.031789
  0.961049
  1.116508
  1.072256
  0.987354
  1.071303
  0.999457
  1.107753
  1.146107
  1.141451
  1.044627
  1.014150
  1.168894
  1.119958
  1.110981
  1.045423
  1.113337
  1.181027
  1.124446
  0.974377
  1.082452
  1.206232
  1.150749
  1.040135
  1.016303
  1.097867
  1.002027
  1.156695
  1.128383
  1.227301
  1.025590
  1.175067
  1.080001
  0.944795
  1.243351
  0.836125
  1.185416
  1.150604
  1.052344
  1.229544
  1.240360
  1.213006
  1.085684
  1.267865
  1.125883
  0.991143
  1.211135
  1.260062
  1.269657
  1.058298
  1.028910
  1.024720
  1.133677
  1.192791
  1.284699
  1.267614
  1.115779
  0.961989
  1.301476
  1.196555
  1.305137
  0.967137
  1.307362
  1.057603
  1.270502
  1.103381
  1.276954
  0.998145
  1.179545
  1.302475
  1.318932
  1.025125
  1.082551
  1.306084
  1.032533
  1.162191
  1.359465
  1.261245
  1.353684
  1.139531
  1.365958
  1.416078
  1.241598
  1.418550
  1.056182
  1.347051
  1.409730
  1.446222
  1.115154
  1.208023
  1.013785
  1.345837
  0.903828
  1.096925
  1.439696
  1.000825
  1.475455
  1.040820
  1.187442
  1.487556
  1.309399
  0.796580
  1.508670
  1.448739
  1.155693
  1.285927
  0.995438
  1.519762
  1.031100
  1.474413
  1.545342
  1.013345
  1.534525
  1.116281
  1.549128
  1.239132
  1.553662
  0.836531
  1.408122
  1.096309
  0.956401
  1.029771
  1.200975
  1.569831
  0.654638
  1.574006
  1.350543
  0.873702
  1.602915
  1.603395
  1.158676
  1.312624
  0.986040
  1.599879
  1.581913
  1.600752
  1.091666
  0.986126
  1.656884
  1.248441
  1.500820
  0.908183
  1.627428
  1.664223
  1.055772
  1.474219
  1.006384
  1.196215
  1.630030
  1.371761
  1.002386
  1.696911
  1.134527
  1.318522
  1.661155
  0.913349
  1.690836
  1.603472
  0.858825
  1.060221
  1.472220
  1.216005
  1.641902
  0.937156
  1.645167
  1.460309
  1.708672
  0.806970
  1.652393
  0.949440
  1.148759
  1.679956
  1.324880
  0.996694
  0.938315
  1.607789
  0.829003
  1.257706
  1.681733
  1.061492
  0.831576
  1.612123
  1.141957
  0.965705
  1.559621
  1.430977
  0.873427
  1.622114
  1.385552
  1.559910
  1.549388
  0.772735
  1.620434
  0.875179
  1.013117
  1.519147
  0.909951
  1.162608
  1.535167
  0.809440
  0.778730
  0.708997
  1.073677
  0.724679
  1.316494
  1.414887
  0.965932
  1.497092
  0.770594
  0.755391
  1.368953
  0.535618
  1.145467
  1.322713
  1.368886
  0.693970
  1.061909
  0.764563
  1.265518
  0.738666
  1.286624
  0.623029
  0.792826
  1.320244
  1.174745
  1.191864
  0.812279
  0.681868
  0.982538
  0.570965
  0.546674
  0.432461
  1.015186
  0.670612
  1.087478
  0.901440
  0.637578
  0.888021
  0.819797
  0.655031
  0.456354
  0.634681
  0.232689
  0.577359
  0.284038
  0.696840
  0.749936
  0.617485
  0.533532
  0.412861
  0.547091
  0.401850
  -0.005690
  0.298489
  0.476427
  0.569808
  -0.116439
  0.297494
  0.140432
  0.366767
  0.296023
  0.060391
  -0.240535
  0.459089
  -0.514728
  0.147175
  0.060125
  -0.008293
  0.309208
  -0.277900
  -0.092286
  -0.844702
  0.288975
  0.407726
  -0.167453
  -0.146712
  -0.408489
  0.069668
  -0.311765
  -0.875229
  0.395349
  -0.520029
  -0.933215
  -0.272230
  0.509186
  0.500027
  -0.095733
  -0.612855
  0.153788
  -1.454411
  0.267541
  -0.658552
  -0.793938
  -0.926386
  -1.051791
  -1.022488
  -1.103090
  -0.639106
  -1.814369
  0.000566
  -1.025493
  0.783451
  -0.217129
  -1.198431
  -1.725411
  0.299758
  -1.226626
  -0.773940
  -1.506650
  0.394647
  -1.921937
  0.041231
  -1.748358
  -0.544270
  -2.301205
  0.021672
  -1.520930
  -1.615069
  -1.599803
  -1.346870
  -1.642436
  0.577871
  -2.502310
  -0.358896
  -1.889793
  -0.420823
  -2.397139
  0.111680
  -1.833708
  -2.114610
  -2.093312
  -1.990886
  -1.941475
  -1.041170
  -2.786980
  -0.086783
  -0.206576
  -1.119591
  -2.112970
  0.296716
  -2.538223
  -2.066076
  -2.056449
  -1.898672
  -2.596410
  -2.154358
  -0.615690
  -2.130963
  -0.587297
  -2.214517
  -2.631425
  0.007098
  -2.558861
  -1.537536
  -2.120395
  -2.253954
  -1.446784
  -2.674383
  -0.438159
  -0.158390
  -2.157921
  -1.101870
  -2.433342
  -2.145421
  0.136828
  -2.216110
  -2.282480
  -0.983808
  -2.331290
  -2.123182
  -2.176766
  0.687749
  -2.658907
  -0.156514
  -0.626670
  -2.352679
  -2.179951
  -2.053902
  -1.625152
  -2.267641
  -2.084661
  -0.587181
  -0.990716
  -2.147365
  -1.617186
  0.456886
  -0.206959
  -2.500541
  -2.304153
  -2.181534
  -1.991238
  0.997241
  -2.071866
  -2.127327
  -2.204556
  -0.979899
  -2.112980
  -2.113913
  -2.146389
  0.281892
  -1.998153
  -1.957055
  -2.106756
  -2.089575
  -2.136984
  -2.074029
  -0.630878
  -2.012515
  -2.085782
  0.656380
  -2.066169
  -2.289331
  -0.205136
  -1.931150
  -2.097041
  -2.069875
  -1.920277
  -1.962077
  -2.087891
  -2.110023
  -2.069416
  -1.933232
  -2.107701
  -2.100226
  -2.066341
  -0.203256
  -1.203033
  -1.918879
  -2.161744
  -0.676176
  -2.118136
  -2.088983
  -1.840633
  -2.123631
  -1.183182
  -2.076929
  -2.135090
  -1.741902
  -2.075023
  -2.167885
  -2.050489
  -2.060664
  -2.060337
  -2.146411
  -2.043063
  -2.117301
  -2.084926
  -2.150999
  -0.529688
  -2.084430
  -2.159905
  -2.093420
  -2.157289
  -0.288873
  -2.129307
  -2.078509
  -0.684232
  -0.038755
  -2.112904
  -2.178441
  -1.232942
  -1.288786
  -1.948439
  -2.072784
  -2.053221
  -2.221097
  -2.114252
  -2.191913
  -2.115791
  -2.096080
  -2.186332
  0.185085
  0.408361
  -0.422502
  -2.159461
  -0.221688
  -2.525181
  -2.263559
  -2.588824
  -2.230449
  -2.214144
  -2.646909
  -2.643748
  -2.260506
  0.029785
  -2.617266
  -0.566931
  0.840278
  -2.214307
  -0.913655
  -2.057141
  -1.288571
  -2.613263
  0.744225
  -2.748289
  -3.004253
  -2.714507
  -2.727138
  -3.140100
  -3.243292
  -3.238116
  -0.210061
  0.567255
  -0.141013
  -2.730979
  -2.906041
  -0.766416
  -0.494648
  1.216640
  0.332630
  -2.025905
  -1.092432
  -3.142255
  -3.354107