# vtk DataFile Version 2.0
FSI_Simulation
ASCII

DATASET UNSTRUCTURED_GRID
POINTS 2042 double
  2.500000  0.410000  0.000000
  2.450000  0.410000  0.000000
  2.500000  0.358750  0.000000
  2.455000  0.345150  0.000000
  2.400000  0.410000  0.000000
  2.500000  0.307500  0.000000
  2.409170  0.352960  0.000000
  2.425000  0.303110  0.000000
  2.350000  0.410000  0.000000
  2.359860  0.354270  0.000000
  2.500000  0.256250  0.000000
  2.450000  0.259810  0.000000
  2.375000  0.303110  0.000000
  2.400000  0.259810  0.000000
  2.300000  0.410000  0.000000
  2.500000  0.205000  0.000000
  2.325000  0.303110  0.000000
  2.425000  0.216510  0.000000
  2.300000  0.346410  0.000000
  2.350000  0.259810  0.000000
  2.375000  0.216510  0.000000
  2.450000  0.173210  0.000000
  2.275000  0.303110  0.000000
  2.250000  0.410000  0.000000
  2.300000  0.259810  0.000000
  2.500000  0.153750  0.000000
  2.400000  0.173210  0.000000
  2.250000  0.346410  0.000000
  2.325000  0.216510  0.000000
  2.350000  0.173210  0.000000
  2.429170  0.133880  0.000000
  2.250000  0.259810  0.000000
  2.225000  0.303110  0.000000
  2.275000  0.216510  0.000000
  2.200000  0.410000  0.000000
  2.197270  0.363510  0.000000
  2.375000  0.129900  0.000000
  2.500000  0.102500  0.000000
  2.300000  0.173210  0.000000
  2.450000  0.086600  0.000000
  2.325000  0.129900  0.000000
  2.200000  0.259810  0.000000
  2.225000  0.216510  0.000000
  2.400000  0.086600  0.000000
  2.250000  0.173210  0.000000
  2.170490  0.306770  0.000000
  2.150000  0.410000  0.000000
  2.350000  0.086600  0.000000
  2.500000  0.051250  0.000000
  2.275000  0.129900  0.000000
  2.135420  0.358250  0.000000
  2.429170  0.044630  0.000000
  2.175000  0.216510  0.000000
  2.300000  0.086600  0.000000
  2.150000  0.259810  0.000000
  2.200000  0.173210  0.000000
  2.375000  0.043300  0.000000
  2.225000  0.129900  0.000000
  2.112500  0.313250  0.000000
  2.100000  0.410000  0.000000
  2.325000  0.043300  0.000000
  2.250000  0.086600  0.000000
  2.500000  0.000000  0.000000
  2.450000  0.000000  0.000000
  2.125000  0.216510  0.000000
  2.400000  0.000000  0.000000
  2.150000  0.173210  0.000000
  2.075000  0.366700  0.000000
  2.175000  0.129900  0.000000
  2.275000  0.043300  0.000000
  2.087500  0.269950  0.000000
  2.350000  0.000000  0.000000
  2.200000  0.086600  0.000000
  2.050000  0.410000  0.000000
  2.300000  0.000000  0.000000
  2.050000  0.323400  0.000000
  2.225000  0.043300  0.000000
  2.100000  0.173210  0.000000
  2.125000  0.129900  0.000000
  2.062500  0.226650  0.000000
  2.150000  0.086600  0.000000
  2.025000  0.366700  0.000000
  2.250000  0.000000  0.000000
  2.175000  0.043300  0.000000
  2.025000  0.280100  0.000000
  2.000000  0.410000  0.000000
  2.000000  0.323400  0.000000
  2.200000  0.000000  0.000000
  2.070830  0.133290  0.000000
  2.100000  0.086600  0.000000
  2.037500  0.183350  0.000000
  2.125000  0.043300  0.000000
  1.975000  0.366700  0.000000
  2.000000  0.236790  0.000000
  2.150000  0.000000  0.000000
  1.975000  0.280100  0.000000
  1.950000  0.410000  0.000000
  2.050000  0.086600  0.000000
  1.950000  0.323400  0.000000
  2.012500  0.140050  0.000000
  2.075000  0.043300  0.000000
  1.975000  0.193490  0.000000
  2.100000  0.000000  0.000000
  1.925000  0.366700  0.000000
  1.950000  0.236790  0.000000
  1.925000  0.280100  0.000000
  2.000000  0.086600  0.000000
  1.900000  0.410000  0.000000
  2.025000  0.043300  0.000000
  1.900000  0.323400  0.000000
  1.950000  0.150190  0.000000
  2.050000  0.000000  0.000000
  1.925000  0.193490  0.000000
  1.900000  0.236790  0.000000
  1.875000  0.366700  0.000000
  1.875000  0.280100  0.000000
  1.975000  0.043300  0.000000
  1.937500  0.096750  0.000000
  2.000000  0.000000  0.000000
  1.850000  0.410000  0.000000
  1.902380  0.145780  0.000000
  1.850000  0.323400  0.000000
  1.875000  0.193490  0.000000
  1.850000  0.236790  0.000000
  1.820830  0.365370  0.000000
  1.925000  0.043300  0.000000
  1.950000  0.000000  0.000000
  1.800000  0.410000  0.000000
  1.850000  0.150190  0.000000
  1.877180  0.088810  0.000000
  1.810710  0.280600  0.000000
  1.800000  0.323400  0.000000
  1.820830  0.195410  0.000000
  1.800000  0.236790  0.000000
  1.900000  0.000000  0.000000
  1.875360  0.035430  0.000000
  1.825000  0.106890  0.000000
  1.800000  0.150190  0.000000
  1.750000  0.410000  0.000000
  1.750000  0.358750  0.000000
  1.750000  0.307500  0.000000
  1.750000  0.256250  0.000000
  1.825000  0.043300  0.000000
  1.850000  0.000000  0.000000
  1.750000  0.205000  0.000000
  1.793300  0.076870  0.000000
  1.750000  0.153750  0.000000
  1.700640  0.410000  0.000000
  1.704300  0.327190  0.000000
  1.750000  0.102500  0.000000
  1.800000  0.000000  0.000000
  1.706240  0.242410  0.000000
  1.676060  0.366700  0.000000
  1.679550  0.284150  0.000000
  1.704500  0.168810  0.000000
  1.750000  0.051250  0.000000
  1.682040  0.198780  0.000000
  1.655740  0.327710  0.000000
  1.651490  0.410000  0.000000
  1.750000  0.000000  0.000000
  1.656690  0.241750  0.000000
  1.703750  0.082910  0.000000
  1.678980  0.125940  0.000000
  1.627030  0.366700  0.000000
  1.631170  0.284620  0.000000
  1.654610  0.169080  0.000000
  1.632070  0.198270  0.000000
  1.607330  0.328120  0.000000
  1.602560  0.410000  0.000000
  1.700280  0.000000  0.000000
  1.675600  0.043300  0.000000
  1.655160  0.082380  0.000000
  1.606810  0.241470  0.000000
  1.630810  0.125620  0.000000
  1.578220  0.366700  0.000000
  1.582990  0.284920  0.000000
  1.604730  0.168150  0.000000
  1.578920  0.210800  0.000000
  1.650920  0.000000  0.000000
  1.559000  0.328320  0.000000
  1.553870  0.410000  0.000000
  1.626430  0.043300  0.000000
  1.606660  0.082260  0.000000
  1.556930  0.242380  0.000000
  1.582820  0.125810  0.000000
  1.529630  0.366700  0.000000
  1.534940  0.284960  0.000000
  1.555320  0.166880  0.000000
  1.601940  0.000000  0.000000
  1.530950  0.199810  0.000000
  1.577650  0.043300  0.000000
  1.510670  0.328200  0.000000
  1.505400  0.410000  0.000000
  1.558080  0.082770  0.000000
  1.534730  0.126670  0.000000
  1.507460  0.243800  0.000000
  1.481280  0.366700  0.000000
  1.486910  0.284640  0.000000
  1.506480  0.166500  0.000000
  1.553350  0.000000  0.000000
  1.529250  0.043300  0.000000
  1.482130  0.200990  0.000000
  1.462240  0.327690  0.000000
  1.457160  0.410000  0.000000
  1.509220  0.083990  0.000000
  1.486020  0.128110  0.000000
  1.458500  0.244760  0.000000
  1.433170  0.366700  0.000000
  1.438620  0.283990  0.000000
  1.458930  0.158770  0.000000
  1.505150  0.000000  0.000000
  1.481250  0.043300  0.000000
  1.434180  0.201480  0.000000
  1.459870  0.085670  0.000000
  1.413590  0.326890  0.000000
  1.409170  0.410000  0.000000
  1.409940  0.244800  0.000000
  1.385300  0.366700  0.000000
  1.389560  0.283370  0.000000
  1.409090  0.158420  0.000000
  1.457350  0.000000  0.000000
  1.433650  0.043300  0.000000
  1.386550  0.201040  0.000000
  1.410050  0.086600  0.000000
  1.364750  0.326450  0.000000
  1.361420  0.410000  0.000000
  1.361460  0.243860  0.000000
  1.337670  0.366700  0.000000
  1.409950  0.000000  0.000000
  1.338650  0.284240  0.000000
  1.386460  0.043300  0.000000
  1.354150  0.119670  0.000000
  1.313920  0.410000  0.000000
  1.316290  0.328550  0.000000
  1.332940  0.164270  0.000000
  1.312360  0.242750  0.000000
  1.362970  0.000000  0.000000
  1.290300  0.366700  0.000000
  1.295390  0.283330  0.000000
  1.339680  0.043300  0.000000
  1.325730  0.078680  0.000000
  1.304410  0.123360  0.000000
  1.266670  0.410000  0.000000
  1.266740  0.323400  0.000000
  1.272670  0.239000  0.000000
  1.283210  0.168120  0.000000
  1.316400  0.000000  0.000000
  1.243180  0.366700  0.000000
  1.246180  0.281190  0.000000
  1.293330  0.043300  0.000000
  1.277840  0.081590  0.000000
  1.256410  0.126460  0.000000
  1.219690  0.410000  0.000000
  1.219750  0.323400  0.000000
  1.233390  0.170720  0.000000
  1.222230  0.237350  0.000000
  1.270260  0.000000  0.000000
  1.196320  0.366700  0.000000
  1.247400  0.043300  0.000000
  1.196390  0.280100  0.000000
  1.229040  0.084940  0.000000
  1.205650  0.129050  0.000000
  1.189490  0.207370  0.000000
  1.172960  0.410000  0.000000
  1.173020  0.323400  0.000000
  1.224540  0.000000  0.000000
  1.181510  0.158020  0.000000
  1.201900  0.043300  0.000000
  1.149720  0.366700  0.000000
  1.179360  0.086600  0.000000
  1.143430  0.291070  0.000000
  1.144660  0.247780  0.000000
  1.126490  0.410000  0.000000
  1.142770  0.189580  0.000000
  1.179250  0.000000  0.000000
  1.134770  0.140320  0.000000
  1.156830  0.043300  0.000000
  1.103400  0.366700  0.000000
  1.100860  0.316520  0.000000
  1.099450  0.268150  0.000000
  1.103580  0.220000  0.000000
  1.080300  0.410000  0.000000
  1.096330  0.172140  0.000000
  1.134410  0.000000  0.000000
  1.100760  0.105310  0.000000
  1.058360  0.324420  0.000000
  1.099400  0.056460  0.000000
  1.059350  0.282410  0.000000
  1.062400  0.233330  0.000000
  1.051490  0.361960  0.000000
  1.062400  0.206670  0.000000
  1.062400  0.140000  0.000000
  1.034380  0.410000  0.000000
  1.090000  0.000000  0.000000
  1.032380  0.305960  0.000000
  1.027830  0.333570  0.000000
  1.033760  0.246670  0.000000
  1.028220  0.281830  0.000000
  1.059860  0.078570  0.000000
  1.030770  0.220170  0.000000
  1.033760  0.193330  0.000000
  1.015410  0.368300  0.000000
  1.056850  0.040910  0.000000
  1.013850  0.293330  0.000000
  1.011380  0.313820  0.000000
  1.013850  0.280000  0.000000
  1.013850  0.266670  0.000000
  1.013850  0.240000  0.000000
  1.012290  0.252000  0.000000
  1.025480  0.152840  0.000000
  1.013850  0.226670  0.000000
  1.028350  0.124560  0.000000
  1.002130  0.333160  0.000000
  1.012290  0.214670  0.000000
  1.013850  0.200000  0.000000
  1.032380  0.094040  0.000000
  1.000000  0.300000  0.000000
  1.012290  0.188000  0.000000
  1.013850  0.173330  0.000000
[...]
POINT_DATA 2042
SCALARS pressure double
LOOKUP_TABLE default
  0.195238
  0.009593
  -0.064203
  -0.053386
  0.239858
  0.122205
  0.126343
  -0.014357
  -0.122181
  0.048587
  0.017764
  0.013649
  0.031027
  0.023695
  -0.304908
  -0.034652
  0.081869
  0.036575
  -0.090479
  0.092705
  0.079103
  0.047259
  0.214523
  0.417911
  0.146277
  0.031739
  0.073110
  0.168840
  0.120661
  0.106799
  0.038674
  0.122099
  0.097488
  0.132659
  0.296949
  0.310290
  0.093577
  -0.007863
  0.134107
  0.034985
  0.124872
  0.188696
  0.203336
  0.114036
  0.179707
  0.312585
  0.061381
  0.137845
  -0.032715
  0.161268
  0.215905
  0.123566
  0.211866
  0.165743
  0.244902
  0.197523
  0.146597
  0.183691
  0.247088
  0.349283
  0.149299
  0.187225
  -0.181104
  0.053916
  0.273525
  0.124057
  0.242857
  0.374820
  0.225112
  0.171224
  0.257282
  0.149853
  0.221947
  0.356996
  0.169645
  0.363530
  0.196422
  0.274161
  0.251113
  0.301998
  0.245693
  0.378743
  0.201400
  0.220681
  0.332612
  0.382002
  0.366206
  0.224244
  0.284219
  0.271368
  0.311788
  0.250136
  0.379703
  0.341715
  0.256288
  0.346374
  0.411197
  0.290157
  0.388196
  0.319709
  0.271399
  0.349456
  0.269756
  0.400650
  0.363314
  0.379831
  0.306617
  0.472439
  0.299491
  0.405684
  0.369259
  0.288485
  0.371700
  0.389709
  0.448294
  0.387898
  0.286601
  0.401372
  0.291965
  0.516913
  0.390858
  0.402273
  0.398883
  0.388124
  0.361550
  0.381522
  0.230919
  0.227428
  0.435643
  0.387704
  0.437512
  0.432404
  0.389533
  0.415627
  0.726736
  0.546008
  0.408166
  0.415347
  0.279944
  0.348503
  0.407799
  0.440733
  0.399264
  0.443154
  0.451644
  0.439382
  0.432596
  0.492197
  0.452307
  0.411194
  0.243312
  0.459329
  0.552238
  0.482467
  0.456197
  0.326390
  0.476721
  0.523484
  0.529786
  0.279434
  0.511009
  0.447453
  0.488562
  0.560941
  0.525659
  0.502648
  0.519450
  0.549066
  0.557783
  0.486182
  0.546578
  0.520959
  0.542649
  0.538380
  0.567225
  0.545555
  0.532204
  0.557698
  0.536073
  0.573071
  0.577152
  0.559393
  0.549609
  0.567900
  0.560054
  0.586868
  0.574002
  0.561414
  0.569062
  0.582133
  0.567527
  0.594219
  0.596577
  0.577878
  0.593817
  0.593581
  0.604485
  0.596685
  0.581814
  0.589120
  0.588037
  0.606201
  0.616343
  0.618440
  0.601843
  0.619363
  0.614273
  0.623627
  0.623265
  0.605544
  0.611300
  0.604400
  0.619366
  0.649075
  0.638201
  0.641588
  0.640626
  0.643105
  0.646034
  0.637184
  0.643655
  0.629216
  0.647843
  0.651037
  0.659974
  0.665695
  0.650740
  0.659154
  0.752296
  0.675843
  0.672837
  0.672969
  0.703573
  0.685123
  0.683055
  0.669295
  0.681390
  0.687372
  0.694732
  0.642233
  0.704764
  0.682917
  0.734641
  0.703001
  0.701384
  0.691596
  0.733690
  0.701857
  0.703449
  0.690952
  0.706906
  0.702533
  0.738705
  0.743361
  0.707903
  0.682190
  0.789927
  0.715677
  0.694034
  0.740872
  0.732210
  0.662843
  0.688468
  0.812778
  0.739776
  0.812693
  0.738740
  0.749359
  0.751539
  0.641514
  0.768576
  0.755049
  0.852519
  0.729488
  0.842760
  0.803041
  0.581921
  0.714783
  0.773133
  0.732343
  0.729986
  0.644717
  0.715550
  0.593695
  0.741751
  0.799690
  0.576452
  0.766636
  0.789227
  0.740509
  0.776368
  0.698606
  0.835601
  0.656384
  0.757248
  0.780256
  0.792752
  0.788746
  0.709335
  0.798919
  0.772955
  0.728946
  0.427608
  0.809004
  0.787708
  0.809097
  0.803813
  0.803783
  0.805668
  0.768245
  0.804824
  0.730982
  0.890314
  0.801386
  0.790045
  0.656004
  0.805177
  0.778925
  0.776154
  0.809453
  0.811142
  0.811230
  0.782748
  0.811293
  0.555006
  0.777842
  0.826858
  0.810256
  0.459948
  0.844215
  0.772915
  0.809510
  0.823975
  0.803669
  0.765440
  0.797695
  0.746972
  0.818031
  0.793694
  0.820193
  0.792667
  0.791728
  0.819307
  0.691822
  0.814294
  0.788216
  0.822578
  0.814754
  0.823488
  0.824814
  0.781391
  0.799524
  0.813885
  0.758850
  0.806985
  0.822442
  0.753526
  0.822756
  0.828664
  0.827442
  0.811245
  0.800971
  0.809805
  0.817117
  0.834954
  0.824491
  0.810444
  0.832222
  0.782262
  0.797329
  0.835258
  0.810544
  0.830809
  0.778819
  0.819361
  0.826010
  0.846284
  0.831473
  0.782029
  0.838189
  0.836804
  0.813246
  0.841143
  0.822993
  0.844134
  0.829169
  0.801635
  0.837901
  0.834802
  0.841462
  0.892318
  0.812471
  0.843454
  0.706364
  0.824864
  0.915674
  0.831654
  0.820899
  0.837233
  0.851599
  0.975926
  0.841958
  0.844966
  0.803657
  0.847303
  0.828264
  0.849083
  0.835386
  0.840014
  0.884478
  0.827714
  0.847886
  0.845867
  0.851066
  0.852412
  0.880096
  0.836434
  0.838962
  0.844259
  0.837181
  0.848615
  0.857766
  0.852160
  0.854780
  0.835579
  0.857044
  0.984086
  0.857506
  0.848595
  0.852068
  0.845742
  0.846008
  0.858345
  0.856961
  0.857139
  0.860337
  0.862215
  0.861145
  0.853985
  0.857092
  0.808375
  0.860165
  0.853523
  0.862408
  0.863072
  0.862474
  0.865013
  0.865304
  0.816454
  0.865899
  0.861992
  0.861022
  0.864880
  0.839791
  0.867484
  0.861898
  0.868644
  0.870254
  0.902465
  0.869557
  0.893126
  0.870756
  0.868050
  0.869665
  0.872098
  0.940400
  0.869320
  0.874597
  0.865478
  0.874290
  0.876929
  0.875109
  0.873658
  0.874816
  0.876620
  0.875278
  0.878947
  0.868848
  0.876774
  0.879469
  0.829599
  0.880478
  0.878711
  0.927545
  0.876708
  0.881109
  0.882000
  0.883992
  0.884960
  0.882923
  0.885379
  0.873476
  0.901385
  0.895413
  0.884367
  0.888490
  0.882013
  0.891643
  0.886951
  0.888610
  0.888350
  0.890912
  0.888226
  0.890101
  0.890548
  0.912737
  0.928310
  0.888717
  0.885632
  0.893815
  0.892522
  0.896498
  0.896212
  0.896497
  0.896968
  0.884578
  0.885763
  0.894696
  0.892592
  0.898635
  0.900640
  0.897687
  0.903018
  0.901151
  0.902255
  0.892714
  0.826225
  0.898741
  0.909352
  0.903203
  0.895164
  0.905579
  0.908461
  0.904335
  0.908768
  0.908071
  0.902103
  0.891620
  0.905406
  0.877125
  0.901921
  0.909900
  0.907620
  0.912556
  0.915776
  0.913635
  0.912839
  0.892097
  0.896816
  0.901524
  0.909034
  0.913584
  0.913831
  0.916712
  0.878220
  0.921089
  0.909434
  0.921687
  0.833789
  0.920095
  0.902772
  0.892548
  0.917218
  0.910452
  0.916815
  0.886035
  0.920988
  0.919415
  0.924815
  0.929116
  0.926254
  0.926161
  0.907480
  0.906017
  0.962944
  0.910937
  0.920432
  0.923903
  0.928356
  0.933724
  0.919857
  0.935272
  0.800156
  0.933287
  0.913640
  0.919879
  0.904905
  0.928977
  0.925890
  0.932297
  0.937149
  0.943579
  0.940060
  0.894024
  0.939302
  0.929500
  0.914389
  0.898905
  0.934803
  0.939992
  0.946988
  0.928280
  0.950777
  0.918105
  0.947118
  0.923381
  0.929645
  0.910230
  0.941447
  0.928732
  0.942945
  0.935908
  0.949150
  0.957798
  0.926375
  0.955422
  0.908650
  0.929046
  0.953792
  0.905370
  0.940533
  0.920338
  0.951549
  0.944596
  0.960372
  0.967341
  0.936147
  0.943551
  0.962144
  0.916578
  0.956526
  0.929067
  0.944442
  0.953985
  0.961175
  0.973641
  0.972592
  1.014670
  0.920817
  0.967646
  0.951729
  0.925827
  0.939804
  0.917926
  0.973254
  0.962397
  0.955807
  1.036363
  0.936337
  0.986216
  0.946274
  0.951841
  0.978239
  0.920943
  0.968583
  0.957347
  0.972421
  0.963695
  0.988859
  0.991742
  0.988312
  0.982627
  0.956355
  0.910889
  0.966500
  0.948894
  0.972428
  0.963395
  0.986207
  0.938365
  1.003268
  0.869338
  0.964880
  0.996005
  0.921916
  0.983678
  0.960215
  0.971900
  0.983076
  0.964193
  1.003716
  0.905697
  0.988518
  1.009138
  1.000490
  0.978868
  0.974703
  0.904845
  0.956008
  0.981165
  0.970853
  0.940980
  0.997138
  1.015080
  1.020161
  0.965353
  1.012866
  0.941235
  0.999760
  0.971740
  0.948170
  0.978518
  0.991880
  0.970314
  1.015147
  1.027528
  0.979565
  0.933966
  1.015307
  0.969025
  0.991628
  0.962643
  0.939656
  1.005659
  0.987557
  0.974942
  1.033389
  0.945092
  0.971280
  1.031340
  0.789971
  1.013233
  0.935597
  0.979720
  0.952169
  0.982767
  0.998281
  1.023568
  0.972627
  0.934670
  1.043908
  1.032520
  1.001790
  0.970463
  0.967732
  0.991327
  0.976012
  0.941451
  1.012145
  0.780523
  0.996501
  1.042879
  0.971415
  1.047379
  1.027080
  0.930399
  0.986619
  0.971895
  0.954640
  0.984171
  1.002127
  1.030467
  0.973621
  1.056007
  1.047526
  0.925475
  1.010932
  0.970924
  0.968298
  0.971304
  0.940089
  0.992778
  1.016337
  0.973621
  1.051426
  0.966352
  0.906688
  1.061566
  1.037398
  0.918181
  0.991272
  0.954677
  0.983573
  1.003232
  1.034559
  1.067768
  0.916115
  1.057399
  1.017252
  0.970455
  0.961267
  0.935724
  0.991124
  0.973313
  1.017229
  0.977126
  1.058292
  1.071160
  0.965190
  0.912890
  1.042685
  0.910907
  0.991967
  0.949455
  0.978507
  1.001142
  1.037090
  0.951101
  1.078505
  1.061704
  0.962348
  0.887252
  1.017557
  0.954160
  0.966078
  0.986258
  0.967108
  1.014521
  1.062445
  0.925996
  1.076720
  0.964094
  0.824578
  1.041690
  0.895208
  0.988880
  0.971815
  0.995179
  1.033731
  0.941550
  1.087027
  0.875394
  1.057292
  1.013689
  0.951503
  0.958189
  0.912378
  0.977397
  0.957416
  1.007134
  1.060361
  0.939767
  1.079655
  0.952463
  1.031299
  0.882161
  0.919483
  0.979279
  0.905832
  0.933943
  0.961009
  0.983999
  1.025254
  1.082841
  1.050256
  0.903169
  0.892661
  0.999837
  0.942549
  0.948196
  0.943278
  0.909919
  0.964422
  0.942861
  0.992497
  1.050483
  0.939207
  1.072178
  0.898475
  1.016666
  0.961958
  0.892170
  0.933580
  0.914027
  0.945549
  0.966216
  1.006095
  1.074630
  0.886632
  0.928887
  1.031359
  0.899042
  0.977430
  0.922900
  0.890493
  0.943374
  0.969912
  1.022387
  0.928962
  1.059822
  0.825597
  0.985440
  0.936235
  0.633146
  0.873222
  0.893123
  0.941411
  0.925800
  0.976951
  1.039826
  0.868372
  1.006673
  0.944031
  0.917817
  0.891141
  0.864156
  0.987247
  0.866123
  0.920483
  0.936316
  0.910756
  1.019480
  0.915731
  0.953241
  0.821220
  0.894201
  0.855338
  0.860207
  0.901949
  0.848132
  0.903355
  0.910106
  0.985772
  0.929468
  0.961603
  0.896997
  0.903928
  0.835716
  0.845304
  0.834032
  0.890974
  0.893396
  0.899970
  0.913035
  0.891859
  0.960385
  0.903859
  0.840295
  0.818106
  0.830308
  0.820890
  0.876832
  0.873650
  0.890817
  0.870438
  0.914049
  0.822797
  0.885296
  0.825265
  0.781018
  0.800337
  0.859302
  0.846652
  0.869470
  0.820703
  0.810903
  0.870395
  0.794331
  0.749941
  0.812999
  0.769595
  0.793683
  0.803271
  0.846970
  0.850484
  0.833118
  0.812048
  0.771627
  0.721325
  0.819186
  0.863609
  0.895871
  0.738465
  0.767473
  0.891801
  0.754648
  0.665321
  0.789987
  0.829776
  0.791322
  0.845623
  0.666232
  0.794240
  0.768109
  0.709370
  0.635380
  0.859454
  0.828006
  0.608602
  0.798914
  0.723542
  0.840986
  0.857249
  0.600160
  0.792332
  0.736432
  0.636807
  0.774187
  0.801086
  0.753899
  0.829716
  0.511495
  0.513775
  0.782464
  0.809288
  0.439118
  0.748146
  0.593093
  0.466982
  0.766290
  0.688470
  0.506611
  0.654790
  0.827852
  0.710342
  0.765643
  0.778085
  0.864499
  0.330207
  0.352259
  0.779365
  0.806327
  0.719495
  0.589541
  0.372252
  0.477613
  0.323527
  0.808735
  0.354189
  0.923993
  0.776910
  0.573896
  0.734343
  0.743771
  0.665697
  0.652219
  0.329461
  0.340500
  0.487538
  0.353008
  0.810641
  0.774779
  0.346941
  0.827464
  0.421513
  0.764816
  0.426763
  0.791059
  0.699775
  0.584392
  0.468842
  0.764688
  0.489719
  0.624243
  0.793454
  0.532136
  0.741289
  0.501273
  0.877872
  0.523454
  0.734041
  0.703337
  0.646025
  0.507367
  0.798989
  0.539912
  0.791856
  0.765573
  0.829215
  0.540128
  0.556639
  0.807727
  0.659488
  0.780652
  0.700215
  0.598927
  0.614211
  0.737528
  0.849054
  0.544498
  0.583186
  0.811367
  0.756373
  0.571647
  0.564907
  0.597804
  0.593635
  0.713504
  0.660991
  0.790288
  0.772878
  0.830233
  0.731511
  0.582165
  0.641617
  0.804326
  0.685864
  0.629646
  0.778895
  0.610846
  0.635152
  0.750348
  0.775273
  0.707807
  0.656206
  0.817800
  0.616386
  0.755717
  0.639898
  0.628513
  0.728880
  0.626947
  0.641415
  0.687344
  0.794378
  0.779640
  0.740341
  0.851258
  0.641958
  0.700964
  0.646432
  0.775474
  0.671985
  0.670189
  0.765771
  0.725417
  0.918418
  0.654314
  0.821555
  0.763898
  0.806194
  0.699140
  0.678993
  0.690716
  0.751851
  0.713531
  0.846926
  0.856710
  0.696988
  0.703113
  0.788654
  0.794078
  0.754149
  0.695930
  0.728886
  0.783761
  0.976806
  0.714135
  0.704908
  0.718206
  0.883216
  0.788453
  0.746605
  0.717954
  0.818019
  0.870023
  0.775471
  0.728818
  0.820380
  0.793933
  0.788104
  0.741448
  0.788843
  0.721472
  0.749643
  0.747061
  0.814942
  0.772649
  0.822957
  0.732567
  0.762840
  0.748741
  0.786894
  0.735541
  0.820843
  0.772179
  0.776262
  0.738835
  0.751175
  0.822425
  0.790064
  0.749636
  0.747909
  0.836214
  0.769661
  0.814134
  0.773779
  0.800846
  0.830807
  0.796602
  0.756720
  0.836584
  0.792960
  0.791956
  0.809197
  0.802982
  0.759791
  0.797856
  0.774587
  0.843054
  0.798083
  0.861178
  0.809101
  0.777828
  0.794972
  0.860612
  0.920336
  0.800669
  0.848787
  0.805706
  0.821356
  0.817907
  0.868167
  0.815971
  0.803746
  0.864221
  0.811685
  0.798027
  0.822300
  0.846645
  0.811379
  0.873819
  0.887280
  0.816243
  0.828038
  0.870984
  0.877217
  0.828339
  0.875245
  0.884908
  0.885693
  0.835760
  0.899799
  0.905799
  0.842126
  0.837558
  0.855900
  0.888592
  0.862149
  0.918267
  0.903228
  0.790879
  0.838968
  0.855913
  0.839159
  0.896977
  0.873240
  0.858265
  0.933490
  0.923938
  0.856545
  0.884629
  0.845386
  0.917432
  0.898802
  0.943232
  0.931653
  0.878834
  0.846804
  0.903842
  0.956745
  0.944113
  0.861782
  0.907529
  0.930083
  0.847079
  0.921754
  0.966731
  0.908333
  0.972995
  0.980583
  0.885456
  0.846359
  0.943988
  0.936382
  0.977164
  0.860669
  0.951133
  0.909368
  0.954566
  0.995411
  0.850002
  0.996219
  0.792421
  0.915882
  0.993439
  0.887077
  0.977588
  0.891194
  0.802987
  1.004221
  0.941122
  0.853443
  0.956512
  0.853499
  0.999425
  1.036488
  1.025356
  0.918959
  0.883342
  1.062728
  1.014322
  0.984905
  0.906732
  1.006619
  1.072108
  1.020422
  0.836726
  0.962838
  1.100091
  1.031455
  0.911006
  0.867546
  0.965389
  0.866385
  1.056381
  1.018264
  1.123300
  0.892738
  1.075685
  0.954353
  0.789920
  1.141990
  0.683405
  1.084871
  1.025444
  0.909013
  1.124388
  1.142337
  1.116729
  0.946199
  1.167997
  1.007094
  0.847452
  1.094333
  1.165150
  1.170862
  0.924874
  0.874926
  0.886114
  1.000824
  1.086662
  1.191434
  1.173515
  0.987566
  0.795333
  1.203186
  1.072499
  1.214539
  0.817487
  1.214909
  0.909430
  1.176729
  0.960141
  1.165983
  0.853928
  1.059098
  1.211295
  1.231987
  0.867501
  0.948396
  1.221140
  0.891030
  1.027375
  1.272101
  1.151592
  1.251881
  1.009616
  1.277238
  1.329583
  1.116987
  1.328882
  0.900613
  1.248077
  1.323465
  1.358104
  0.968339
  1.086238
  0.864359
  1.233584
  0.735681
  0.957273
  1.350167
  0.828003
  1.388512
  0.892863
  1.050037
  1.397667
  1.200476
  0.610595
  1.417967
  1.346830
  1.019490
  1.158678
  0.840544
  1.425274
  0.871982
  1.377025
  1.455121
  0.858395
  1.440203
  0.966781
  1.455623
  1.111674
  1.460379
  0.652959
  1.291548
  0.949028
  0.778299
  0.872188
  1.058016
  1.470136
  0.490290
  1.483603
  1.232810
  0.685929
  1.504087
  1.502173
  1.015572
  1.177070
  0.821381
  1.491050
  1.475717
  1.495029
  0.934693
  0.811257
  1.553142
  1.112678
  1.386287
  0.726152
  1.521171
  1.552425
  0.896538
  1.343858
  0.840142
  1.041227
  1.513291
  1.241654
  0.836547
  1.582866
  0.980920
  1.163966
  1.535236
  0.740505
  1.562172
  1.473968
  0.650511
  0.889923
  1.336343
  1.064689
  1.499481
  0.752727
  1.505805
  1.301851
  1.570154
  0.617946
  1.502454
  0.772101
  0.969677
  1.523356
  1.173136
  0.826175
  0.758398
  1.441141
  0.630543
  1.063766
  1.509576
  0.892470
  0.646780
  1.435838
  0.970262
  0.768226
  1.384444
  1.256722
  0.676117
  1.428124
  1.173964
  1.350507
  1.353855
  0.577247
  1.411426
  0.684053
  0.785031
  1.304923
  0.729773
  0.966686
  1.303701
  0.602022
  0.618363
  0.519391
  0.810825
  0.521140
  1.086046
  1.174750
  0.770872
  1.243166
  0.519494
  0.548501
  1.111852
  0.399819
  0.849600
  1.061155
  1.087164
  0.485136
  0.809418
  0.569814
  0.985729
  0.432614
  0.982176
  0.374605
  0.594037
  1.021607
  0.871882
  0.869452
  0.548652
  0.309345
  0.668682
  0.375674
  0.306776
  0.105014
  0.683355
  0.472085
  0.741845
  0.547097
  0.383220
  0.512801
  0.453329
  0.311464
  0.221507
  0.436895
  -0.176547
  0.153618
  -0.038858
  0.307433
  0.354067
  0.424573
  0.299713
  0.067810
  0.140463
  -0.020254
  -0.484208
  0.011471
  0.044312
  0.375118
  -0.539581
  -0.135393
  -0.188255
  -0.081374
  -0.019114
  -0.389912
  -0.746058
  0.238913
  -1.015764
  -0.298112
  -0.408840
  -0.494828
  0.033535
  -0.683804
  -0.554923
  -1.382270
  0.008399
  0.150170
  -0.649221
  -0.577430
  -0.927146
  -0.252511
  -0.786414
  -1.362041
  0.188831
  -1.012442
  -1.445411
  -0.646357
  0.405181
  0.332382
  -0.476954
  -1.099668
  -0.142119
  -1.977811
  0.006574
  -1.133705
  -1.273547
  -1.363275
  -1.523017
  -1.559696
  -1.607749
  -1.109921
  -2.318225
  -0.330500
  -1.490590
  0.536586
  -0.546825
  -1.653853
  -2.195125
  0.056658
  -1.676574
  -1.151080
  -1.929748
  0.184366
  -2.353081
  -0.243513
  -2.266780
  -0.965813
  -2.740714
  -0.286032
  -1.943715
  -2.017297
  -1.995996
  -1.830921
  -2.054835
  0.326938
  -2.882359
  -0.734833
  -2.251925
  -0.729386
  -2.754488
  -0.162396
  -2.204910
  -2.505968
  -2.562308
  -2.336722
  -2.294496
  -1.462346
  -3.077138
  -0.357205
  -0.542261
  -1.431162
  -2.408367
  0.046103
  -2.796259
  -2.359170
  -2.363064
  -2.307678
  -2.942528
  -2.437958
  -0.983464
  -2.424852
  -0.852886
  -2.460189
  -2.830512
  -0.295835
  -2.875574
  -1.791549
  -2.374432
  -2.490044
  -1.807263
  -2.821420
  -0.770834
  -0.389873
  -2.403057
  -1.347077
  -2.642793
  -2.355178
  -0.164196
  -2.392891
  -2.572775
  -1.315717
  -2.490027
  -2.344520
  -2.380622
  0.401989
  -2.836943
  -0.463338
  -0.849408
  -2.447880
  -2.392827
  -2.247360
  -1.807977
  -2.375566
  -2.276760
  -0.870811
  -1.194757
  -2.335101
  -1.873789
  0.178224
  -0.419022
  -2.618884
  -2.449561
  -2.374719
  -2.183000
  0.737178
  -2.239542
  -2.310834
  -2.380107
  -1.244896
  -2.218563
  -2.295904
  -2.335495
  0.076199
  -2.192310
  -2.150717
  -2.242169
  -2.243016
  -2.323291
  -2.259379
  -0.827486
  -2.108302
  -2.259869
  0.433515
  -2.252168
  -2.395711
  -0.459211
  -2.127857
  -2.285851
  -2.226636
  -2.118313
  -2.157967
  -2.277290
  -2.236409
  -2.225309
  -2.131949
  -2.265460
  -2.220370
  -2.222491
  -0.395114
  -1.375428
  -2.119160
  -2.296017
  -0.915078
  -2.244647
  -2.248695
  -1.974245
  -2.249041
  -1.393104
  -2.238571
  -2.259198
  -1.911918
  -2.236943
  -2.267870
  -2.157198
  -2.149292
  -2.180497
  -2.270131
  -2.165423
  -2.233837
  -2.203134
  -2.274481
  -0.706483
  -2.201811
  -2.283077
  -2.209492
  -2.280271
  -0.503977
  -2.254164
  -2.192801
  -0.884621
  -0.210789
  -2.225718
  -2.300472
  -1.387158
  -1.459680
  -2.074361
  -2.168982
  -2.167887
  -2.348691
  -2.225381
  -2.312955
  -2.241876
  -2.207213
  -2.306417
  -0.039871
  0.232756
  -0.587322
  -2.276356
  -0.409994
  -2.655730
  -2.378137
  -2.717622
  -2.343222
  -2.326807
  -2.775273
  -2.771728
  -2.379646
  -0.135465
  -2.749194
  -0.743304
  0.550741
  -2.330850
  -1.071953
  -2.197551
  -1.438539
  -2.736771
  0.578527
  -2.870610
  -3.136915
  -2.835632
  -2.848271
  -3.271543
  -3.374405
  -3.369417
  -0.372307
  0.344246
  -0.315925
  -2.856271
  -3.042087
  -0.922193
  -0.659112
  1.026009
  0.169403
  -2.161619
  -1.245256