# vtk DataFile Version 2.0
FSI_Simulation
ASCII

DATASET UNSTRUCTURED_GRID
POINTS 2042 double
  2.500000  0.410000  0.000000
  2.450000  0.410000  0.000000
  2.500000  0.358750  0.000000
  2.455000  0.345150  0.000000
  2.400000  0.410000  0.000000
  2.500000  0.307500  0.000000
  2.409170  0.352960  0.000000
  2.425000  0.303110  0.000000
  2.350000  0.410000  0.000000
  2.359860  0.354270  0.000000
  2.500000  0.256250  0.000000
  2.450000  0.259810  0.000000
  2.375000  0.303110  0.000000
  2.400000  0.259810  0.000000
  2.300000  0.410000  0.000000
  2.500000  0.205000  0.000000
  2.325000  0.303110  0.000000
  2.425000  0.216510  0.000000
  2.300000  0.346410  0.000000
  2.350000  0.259810  0.000000
  2.375000  0.216510  0.000000
  2.450000  0.173210  0.000000
  2.275000  0.303110  0.000000
  2.250000  0.410000  0.000000
  2.300000  0.259810  0.000000
  2.500000  0.153750  0.000000
  2.400000  0.173210  0.000000
  2.250000  0.346410  0.000000
  2.325000  0.216510  0.000000
  2.350000  0.173210  0.000000
  2.429170  0.133880  0.000000
  2.250000  0.259810  0.000000
  2.225000  0.303110  0.000000
  2.275000  0.216510  0.000000
  2.200000  0.410000  0.000000
  2.197270  0.363510  0.000000
  2.375000  0.129900  0.000000
  2.500000  0.102500  0.000000
  2.300000  0.173210  0.000000
  2.450000  0.086600  0.000000
  2.325000  0.129900  0.000000
  2.200000  0.259810  0.000000
  2.225000  0.216510  0.000000
  2.400000  0.086600  0.000000
  2.250000  0.173210  0.000000
  2.170490  0.306770  0.000000
  2.150000  0.410000  0.000000
  2.350000  0.086600  0.000000
  2.500000  0.051250  0.000000
  2.275000  0.129900  0.000000
  2.135420  0.358250  0.000000
  2.429170  0.044630  0.000000
  2.175000  0.216510  0.000000
  2.300000  0.086600  0.000000
  2.150000  0.259810  0.000000
  2.200000  0.173210  0.000000
  2.375000  0.043300  0.000000
  2.225000  0.129900  0.000000
  2.112500  0.313250  0.000000
  2.100000  0.410000  0.000000
  2.325000  0.043300  0.000000
  2.250000  0.086600  0.000000
  2.500000  0.000000  0.000000
  2.450000  0.000000  0.000000
  2.125000  0.216510  0.000000
  2.400000  0.000000  0.000000
  2.150000  0.173210  0.000000
  2.075000  0.366700  0.000000
  2.175000  0.129900  0.000000
  2.275000  0.043300  0.000000
  2.087500  0.269950  0.000000
  2.350000  0.000000  0.000000
  2.200000  0.086600  0.000000
  2.050000  0.410000  0.000000
  2.300000  0.000000  0.000000
  2.050000  0.323400  0.000000
  2.225000  0.043300  0.000000
  2.100000  0.173210  0.000000
  2.125000  0.129900  0.000000
  2.062500  0.226650  0.000000
  2.150000  0.086600  0.000000
  2.025000  0.366700  0.000000
  2.250000  0.000000  0.000000
  2.175000  0.043300  0.000000
  2.025000  0.280100  0.000000
  2.000000  0.410000  0.000000
  2.000000  0.323400  0.000000
  2.200000  0.000000  0.000000
  2.070830  0.133290  0.000000
  2.100000  0.086600  0.000000
  2.037500  0.183350  0.000000
  2.125000  0.043300  0.000000
  1.975000  0.366700  0.000000
  2.000000  0.236790  0.000000
  2.150000  0.000000  0.000000
  1.975000  0.280100  0.000000
  1.950000  0.410000  0.000000
  2.050000  0.086600  0.000000
  1.950000  0.323400  0.000000
  2.012500  0.140050  0.000000
  2.075000  0.043300  0.000000
  1.975000  0.193490  0.000000
  2.100000  0.000000  0.000000
  1.925000  0.366700  0.000000
  1.950000  0.236790  0.000000
  1.925000  0.280100  0.000000
  2.000000  0.086600  0.000000
  1.900000  0.410000  0.000000
  2.025000  0.043300  0.000000
  1.900000  0.323400  0.000000
  1.950000  0.150190  0.000000
  2.050000  0.000000  0.000000
  1.925000  0.193490  0.000000
  1.900000  0.236790  0.000000
  1.875000  0.366700  0.000000
  1.875000  0.280100  0.000000
  1.975000  0.043300  0.000000
  1.937500  0.096750  0.000000
  2.000000  0.000000  0.000000
  1.850000  0.410000  0.000000
  1.902380  0.145780  0.000000
  1.850000  0.323400  0.000000
  1.875000  0.193490  0.000000
  1.850000  0.236790  0.000000
  1.820830  0.365370  0.000000
  1.925000  0.043300  0.000000
  1.950000  0.000000  0.000000
  1.800000  0.410000  0.000000
  1.850000  0.150190  0.000000
  1.877180  0.088810  0.000000
  1.810710  0.280600  0.000000
  1.800000  0.323400  0.000000
  1.820830  0.195410  0.000000
  1.800000  0.236790  0.000000
  1.900000  0.000000  0.000000
  1.875360  0.035430  0.000000
  1.825000  0.106890  0.000000
  1.800000  0.150190  0.000000
  1.750000  0.410000  0.000000
  1.750000  0.358750  0.000000
  1.750000  0.307500  0.000000
  1.750000  0.256250  0.000000
  1.825000  0.043300  0.000000
  1.850000  0.000000  0.000000
  1.750000  0.205000  0.000000
  1.793300  0.076870  0.000000
  1.750000  0.153750  0.000000
  1.700640  0.410000  0.000000
  1.704300  0.327190  0.000000
  1.750000  0.102500  0.000000
  1.800000  0.000000  0.000000
  1.706240  0.242410  0.000000
  1.676060  0.366700  0.000000
  1.679550  0.284150  0.000000
  1.704500  0.168810  0.000000
  1.750000  0.051250  0.000000
  1.682040  0.198780  0.000000
  1.655740  0.327710  0.000000
  1.651490  0.410000  0.000000
  1.750000  0.000000  0.000000
  1.656690  0.241750  0.000000
  1.703750  0.082910  0.000000
  1.678980  0.125940  0.000000
  1.627030  0.366700  0.000000
  1.631170  0.284620  0.000000
  1.654610  0.169080  0.000000
  1.632070  0.198270  0.000000
  1.607330  0.328120  0.000000
  1.602560  0.410000  0.000000
  1.700280  0.000000  0.000000
  1.675600  0.043300  0.000000
  1.655160  0.082380  0.000000
  1.606810  0.241470  0.000000
  1.630810  0.125620  0.000000
  1.578220  0.366700  0.000000
  1.582990  0.284920  0.000000
  1.604730  0.168150  0.000000
  1.578920  0.210800  0.000000
  1.650920  0.000000  0.000000
  1.559000  0.328320  0.000000
  1.553870  0.410000  0.000000
  1.626430  0.043300  0.000000
  1.606660  0.082260  0.000000
  1.556930  0.242380  0.000000
  1.582820  0.125810  0.000000
  1.529630  0.366700  0.000000
  1.534940  0.284960  0.000000
  1.555320  0.166880  0.000000
  1.601940  0.000000  0.000000
  1.530950  0.199810  0.000000
  1.577650  0.043300  0.000000
  1.510670  0.328200  0.000000
  1.505400  0.410000  0.000000
  1.558080  0.082770  0.000000
  1.534730  0.126670  0.000000
  1.507460  0.243800  0.000000
  1.481280  0.366700  0.000000
  1.486910  0.284640  0.000000
  1.506480  0.166500  0.000000
  1.553350  0.000000  0.000000
  1.529250  0.043300  0.000000
  1.482130  0.200990  0.000000
  1.462240  0.327690  0.000000
  1.457160  0.410000  0.000000
  1.509220  0.083990  0.000000
  1.486020  0.128110  0.000000
  1.458500  0.244760  0.000000
  1.433170  0.366700  0.000000
  1.438620  0.283990  0.000000
  1.458930  0.158770  0.000000
  1.505150  0.000000  0.000000
  1.481250  0.043300  0.000000
  1.434180  0.201480  0.000000
  1.459870  0.085670  0.000000
  1.413590  0.326890  0.000000
  1.409170  0.410000  0.000000
  1.409940  0.244800  0.000000
  1.385300  0.366700  0.000000
  1.389560  0.283370  0.000000
  1.409090  0.158420  0.000000
  1.457350  0.000000  0.000000
  1.433650  0.043300  0.000000
  1.386550  0.201040  0.000000
  1.410050  0.086600  0.000000
  1.364750  0.326450  0.000000
  1.361420  0.410000  0.000000
  1.361460  0.243860  0.000000
  1.337670  0.366700  0.000000
  1.409950  0.000000  0.000000
  1.338650  0.284240  0.000000
  1.386460  0.043300  0.000000
  1.354150  0.119670  0.000000
  1.313920  0.410000  0.000000
  1.316290  0.328550  0.000000
  1.332940  0.164270  0.000000
  1.312360  0.242750  0.000000
  1.362970  0.000000  0.000000
  1.290300  0.366700  0.000000
  1.295390  0.283330  0.000000
  1.339680  0.043300  0.000000
  1.325730  0.078680  0.000000
  1.304410  0.123360  0.000000
  1.266670  0.410000  0.000000
  1.266740  0.323400  0.000000
  1.272670  0.239000  0.000000
  1.283210  0.168120  0.000000
  1.316400  0.000000  0.000000
  1.243180  0.366700  0.000000
  1.246180  0.281190  0.000000
  1.293330  0.043300  0.000000
  1.277840  0.081590  0.000000
  1.256410  0.126460  0.000000
  1.219690  0.410000  0.000000
  1.219750  0.323400  0.000000
  1.233390  0.170720  0.000000
  1.222230  0.237350  0.000000
  1.270260  0.000000  0.000000
  1.196320  0.366700  0.000000
  1.247400  0.043300  0.000000
  1.196390  0.280100  0.000000
  1.229040  0.084940  0.000000
  1.205650  0.129050  0.000000
  1.189490  0.207370  0.000000
  1.172960  0.410000  0.000000
  1.173020  0.323400  0.000000
  1.224540  0.000000  0.000000
  1.181510  0.158020  0.000000
  1.201900  0.043300  0.000000
  1.149720  0.366700  0.000000
  1.179360  0.086600  0.000000
  1.143430  0.291070  0.000000
  1.144660  0.247780  0.000000
  1.126490  0.410000  0.000000
  1.142770  0.189580  0.000000
  1.179250  0.000000  0.000000
  1.134770  0.140320  0.000000
  1.156830  0.043300  0.000000
  1.103400  0.366700  0.000000
  1.100860  0.316520  0.000000
  1.099450  0.268150  0.000000
  1.103580  0.220000  0.000000
  1.080300  0.410000  0.000000
  1.096330  0.172140  0.000000
  1.134410  0.000000  0.000000
  1.100760  0.105310  0.000000
  1.058360  0.324420  0.000000
  1.099400  0.056460  0.000000
  1.059350  0.282410  0.000000
  1.062400  0.233330  0.000000
  1.051490  0.361960  0.000000
  1.062400  0.206670  0.000000
  1.062400  0.140000  0.000000
  1.034380  0.410000  0.000000
  1.090000  0.000000  0.000000
  1.032380  0.305960  0.000000
  1.027830  0.333570  0.000000
  1.033760  0.246670  0.000000
  1.028220  0.281830  0.000000
  1.059860  0.078570  0.000000
  1.030770  0.220170  0.000000
  1.033760  0.193330  0.000000
  1.015410  0.368300  0.000000
  1.056850  0.040910  0.000000
  1.013850  0.293330  0.000000
  1.011380  0.313820  0.000000
  1.013850  0.280000  0.000000
  1.013850  0.266670  0.000000
  1.013850  0.240000  0.000000
  1.012290  0.252000  0.000000
  1.025480  0.152840  0.000000
  1.013850  0.226670  0.000000
  1.028350  0.124560  0.000000
  1.002130  0.333160  0.000000
  1.012290  0.214670  0.000000
  1.013850  0.200000  0.000000
  1.032380  0.094040  0.000000
  1.000000  0.300000  0.000000
  1.012290  0.188000  0.000000
  1.013850  0.173330  0.000000
[...]
POINT_DATA 2042
SCALARS pressure double
LOOKUP_TABLE default
  0.249963
  1.776513
  -0.007737
  1.389831
  2.367548
  0.213852
  2.023516
  1.255048
  2.227599
  2.318226
  0.024732
  0.625924
  1.952583
  1.410161
  2.223459
  -0.147294
  2.414079
  1.000277
  2.459716
  2.133850
  1.779820
  0.735449
  2.978454
  3.406669
  2.702006
  0.013344
  1.530052
  3.058430
  2.378321
  2.158887
  1.297359
  3.088261
  3.256328
  2.873077
  3.877449
  3.900819
  1.983724
  0.009209
  2.691402
  1.411055
  2.517276
  3.626576
  3.410087
  2.012310
  3.217934
  4.233018
  4.273345
  2.446475
  0.047468
  3.008190
  4.548717
  2.262075
  3.923433
  2.892393
  4.244012
  3.658714
  2.510517
  3.465931
  4.622362
  4.933161
  2.793366
  3.320212
  0.216402
  1.970526
  4.431095
  2.435261
  4.153324
  5.104429
  3.926290
  3.173653
  4.752583
  2.699237
  3.737647
  5.288360
  3.026458
  5.243885
  3.570146
  4.583580
  4.330758
  4.970903
  4.178231
  5.418260
  3.411862
  3.964002
  5.309015
  5.614671
  5.604688
  3.795680
  4.795873
  4.570386
  5.116046
  4.317860
  5.799615
  5.535485
  4.187970
  5.713337
  6.071683
  4.979210
  6.043763
  5.317656
  4.705269
  5.696459
  4.498473
  6.248321
  5.957741
  6.137105
  5.383433
  6.558871
  5.151824
  6.447769
  5.827272
  4.971806
  6.123193
  6.389249
  6.626520
  6.529782
  5.389317
  5.899131
  5.391424
  6.917947
  6.295526
  6.748120
  6.643742
  6.794767
  6.850023
  5.757539
  5.360732
  6.879146
  6.797906
  6.305844
  7.096391
  7.224767
  7.077774
  7.310900
  6.479211
  6.556315
  6.952138
  7.311206
  7.560258
  7.655631
  7.691923
  7.762850
  6.905880
  6.843938
  7.851731
  7.348571
  7.754671
  8.437587
  8.297790
  7.831703
  6.968731
  8.181983
  8.794286
  8.515590
  8.262927
  7.739205
  8.521809
  8.820293
  8.901453
  7.631733
  8.674572
  8.522699
  8.672140
  9.125610
  9.023070
  8.820238
  9.030314
  9.237237
  9.281038
  8.573496
  8.964797
  9.002926
  9.188774
  9.165784
  9.487640
  9.436227
  9.299469
  9.473430
  9.041888
  9.647198
  9.681087
  9.256969
  9.370570
  9.672133
  9.507789
  9.903433
  9.864156
  9.706915
  9.381954
  9.903795
  9.569721
  10.071849
  10.121387
  9.722993
  9.885073
  10.085229
  10.313296
  10.272128
  10.111877
  9.755286
  9.936990
  10.298466
  10.483975
  10.520431
  10.106192
  10.305943
  10.514353
  10.711753
  10.688414
  10.504647
  10.143411
  10.328541
  10.693560
  10.496837
  10.894810
  10.913614
  10.915030
  11.115961
  11.099948
  10.838717
  10.517156
  10.606525
  11.136228
  10.808692
  11.347492
  11.308462
  11.414519
  11.485451
  10.759598
  11.572345
  10.992606
  11.384647
  11.719876
  11.728676
  11.612523
  11.793618
  11.299831
  11.935592
  11.927138
  11.473830
  11.640218
  11.873800
  12.169062
  12.161489
  12.214953
  12.091623
  11.697632
  12.333020
  12.359917
  11.841198
  12.059754
  12.256047
  12.498134
  12.602692
  12.589334
  12.710989
  12.083536
  12.630808
  12.131701
  12.881901
  12.463551
  12.678309
  13.026117
  12.898448
  13.050035
  12.406212
  13.060354
  12.552533
  13.082254
  12.794155
  13.375648
  13.487594
  13.495737
  13.499948
  13.146101
  13.618229
  12.801869
  13.563426
  13.737389
  14.004631
  14.042368
  13.752789
  13.962915
  12.991056
  13.775627
  14.451232
  13.254887
  14.483428
  14.598236
  14.246923
  14.556016
  14.295640
  14.461347
  13.261097
  15.077257
  15.030125
  14.908060
  15.127314
  14.299268
  15.045162
  14.973671
  15.045054
  13.897159
  15.440089
  15.478727
  15.413312
  15.376863
  15.352644
  15.382863
  15.070114
  15.360732
  14.993816
  15.797164
  15.377594
  15.309169
  14.765009
  15.691243
  15.315747
  15.296463
  15.649584
  15.639989
  15.626869
  15.348677
  15.619607
  14.705925
  15.302510
  15.872188
  15.612806
  13.977195
  15.590021
  15.262140
  15.604902
  15.703497
  15.589795
  15.266533
  15.576140
  15.269354
  15.895950
  15.573804
  15.846448
  15.575010
  15.571527
  15.855774
  15.165089
  15.931230
  15.548184
  15.981121
  15.817388
  15.943382
  15.984868
  15.518794
  15.841701
  15.855315
  15.481970
  15.797129
  16.062785
  15.427741
  15.980403
  16.078727
  16.058355
  16.026439
  15.773432
  15.883213
  15.968116
  16.190750
  16.057352
  16.240130
  16.169153
  15.689709
  15.790141
  16.213595
  15.917836
  16.161695
  15.531217
  16.036722
  16.124765
  16.286206
  16.199878
  15.669292
  16.317579
  16.293007
  15.985929
  16.360443
  16.127351
  16.439014
  16.214668
  15.882731
  16.337394
  16.293550
  16.401577
  15.685104
  15.730493
  16.468929
  15.251344
  16.174540
  16.776654
  16.276872
  16.081358
  16.363676
  16.585434
  17.066997
  16.443735
  16.496032
  15.880955
  16.559558
  16.227559
  16.643014
  16.357203
  16.435319
  16.765851
  16.145897
  16.577552
  16.538061
  16.642630
  16.706628
  16.931948
  15.956187
  16.420105
  16.523704
  16.340332
  16.605528
  16.800849
  16.675811
  16.737559
  16.191697
  16.794736
  15.949319
  16.865799
  16.604093
  16.681376
  16.518413
  16.407602
  16.821236
  16.778410
  16.863179
  16.876594
  16.934552
  16.193577
  16.689975
  16.776764
  16.813092
  16.848523
  16.600431
  17.015391
  16.921010
  16.440912
  16.977666
  17.019557
  16.107490
  17.081132
  16.862556
  16.781700
  16.943348
  17.037065
  17.004414
  16.678863
  17.058123
  17.117102
  17.108262
  17.167879
  16.608532
  17.230832
  16.955368
  17.030001
  17.098091
  15.960526
  16.889640
  17.200419
  17.269045
  17.165685
  16.841219
  17.268756
  17.325223
  17.119327
  17.187279
  17.053240
  17.247591
  17.429548
  16.998682
  17.302236
  17.432731
  17.357621
  17.410867
  17.169807
  17.478324
  17.218669
  17.286657
  17.347673
  17.395806
  17.172562
  17.443287
  17.543431
  17.166372
  16.863632
  17.488383
  17.227423
  17.568565
  17.562758
  17.377789
  17.439081
  17.324222
  17.497988
  17.668270
  17.577042
  17.548326
  17.308345
  17.370149
  17.648527
  17.684066
  17.539668
  17.480344
  17.641089
  17.600445
  17.689031
  17.443465
  17.741771
  17.371692
  17.729213
  17.789123
  17.636380
  17.692973
  17.579870
  17.744354
  17.819363
  17.795372
  17.861489
  17.684309
  17.881397
  17.540408
  17.733206
  17.942606
  17.798105
  17.851403
  17.695678
  17.891121
  17.936077
  17.640759
  17.990265
  17.970908
  17.202708
  18.038571
  17.896701
  17.841003
  17.945614
  17.996158
  18.034963
  18.061989
  18.020121
  18.110459
  18.142604
  18.128987
  17.805524
  17.995967
  18.044426
  18.052980
  18.103952
  17.957378
  18.142201
  17.945069
  18.183622
  17.941622
  18.174072
  18.215765
  18.279773
  18.111654
  18.126406
  18.157852
  18.059424
  18.199552
  18.247940
  18.283630
  18.328357
  18.329153
  18.078510
  18.285231
  18.366220
  18.373169
  18.257209
  18.300308
  18.346859
  18.251490
  18.389285
  18.449847
  18.432872
  18.264979
  18.466590
  18.403610
  18.475518
  18.393970
  18.417818
  18.454664
  18.498300
  18.533272
  18.485641
  18.575366
  18.614416
  18.599154
  18.454476
  18.518284
  18.556631
  18.597321
  18.523679
  18.639946
  18.529928
  18.681498
  18.716480
  18.730619
  18.753640
  18.726618
  18.488376
  18.666403
  18.633344
  18.699765
  18.740345
  19.020694
  18.781735
  18.949821
  18.611173
  18.825428
  18.628213
  18.864484
  18.889661
  18.809555
  18.772745
  18.848423
  18.888814
  18.960647
  18.770747
  18.931262
  19.044625
  18.975173
  19.028877
  18.833170
  18.919284
  18.951037
  18.988316
  19.030847
  19.223589
  19.191098
  19.071880
  19.112459
  19.153960
  18.946823
  19.140827
  19.089540
  19.062656
  19.039167
  18.896390
  19.227733
  19.138688
  19.213436
  19.054564
  19.179190
  19.249323
  19.226350
  19.143921
  19.193956
  19.172841
  19.236467
  19.277417
  19.091196
  19.321216
  19.139772
  19.365614
  19.378367
  19.402787
  19.303418
  19.277947
  19.341081
  19.460761
  19.378337
  19.294829
  19.268271
  19.427640
  19.489365
  19.473719
  19.499347
  19.405737
  19.441681
  19.400714
  19.484420
  19.530048
  19.158205
  19.525050
  19.564381
  19.612913
  19.451974
  19.347548
  19.639630
  19.549372
  19.529837
  19.696246
  19.586514
  19.636285
  19.623945
  19.559516
  19.672005
  19.748477
  19.721902
  19.752182
  19.789303
  19.652794
  19.683830
  19.664279
  19.729558
  19.768341
  19.749902
  19.862983
  19.813302
  19.725158
  19.861764
  19.896178
  19.940169
  19.819828
  19.788830
  19.772235
  19.869511
  19.974934
  19.799782
  19.920401
  19.580693
  19.962847
  20.046864
  20.004677
  20.047054
  19.885497
  19.923581
  19.959715
  19.887636
  20.074513
  20.023191
  20.058988
  20.111519
  19.887136
  20.145332
  20.013396
  19.994052
  20.187819
  20.060889
  20.076917
  20.067807
  20.113600
  19.996971
  20.168385
  20.210820
  20.261294
  20.252818
  20.058392
  20.291932
  20.109327
  20.150649
  20.202233
  19.991511
  20.260743
  20.303343
  20.435293
  20.348485
  20.148057
  20.101578
  20.388560
  20.428211
  20.245376
  20.293848
  20.231193
  20.356206
  20.217920
  20.678134
  20.416685
  20.446474
  20.539047
  20.499733
  20.544128
  20.342181
  20.385878
  20.443566
  20.508828
  20.709405
  20.553238
  20.597755
  20.638105
  20.430718
  20.690798
  20.477311
  20.445473
  20.531820
  20.185533
  20.600327
  20.644539
  20.439640
  20.785859
  20.712115
  20.762208
  20.732786
  20.780162
  20.564181
  20.617301
  20.681352
  20.443795
  20.756566
  20.803485
  20.934845
  20.825927
  20.847088
  20.563436
  20.878241
  20.697718
  20.653240
  20.767016
  20.845804
  20.933927
  20.898511
  20.622777
  20.769147
  20.950153
  20.955078
  20.975247
  20.782542
  20.845444
  20.922189
  21.029278
  21.002641
  20.916457
  21.054902
  21.100341
  20.704474
  21.114491
  21.102500
  20.913202
  20.844321
  20.999644
  21.091534
  20.594994
  21.160905
  20.832347
  21.206469
  21.278083
  21.176352
  21.221446
  21.171086
  21.249929
  20.975874
  21.066440
  21.161910
  21.267650
  21.317049
  21.279507
  21.315494
  21.352399
  20.851758
  20.716730
  21.350254
  21.354924
  21.124049
  21.032255
  21.225233
  21.345152
  21.001063
  21.433835
  21.584776
  21.473663
  21.459223
  21.458972
  20.918523
  21.479417
  21.169852
  21.284275
  21.395150
  21.530763
  21.516623
  20.971799
  21.598880
  21.642370
  21.609253
  21.581986
  21.583078
  21.332865
  21.450085
  21.583765
  21.191394
  21.732206
  21.698971
  21.738035
  21.699974
  21.632373
  21.662149
  21.665245
  21.496676
  21.377244
  21.622170
  21.800450
  21.698832
  21.888921
  21.853777
  21.297528
  21.784559
  21.771155
  21.791506
  21.783787
  21.553796
  21.661564
  21.481314
  22.008120
  21.357226
  22.002655
  21.731369
  21.918156
  21.834606
  21.870080
  20.971644
  21.873128
  21.625352
  21.707635
  22.025954
  21.827843
  22.156370
  22.087666
  21.656912
  21.878416
  21.991540
  21.970316
  21.763450
  21.858779
  21.717548
  22.007772
  21.716384
  22.251336
  22.253153
  22.118295
  22.053600
  21.987208
  22.058278
  21.825185
  21.900597
  22.154298
  22.011094
  22.445335
  22.265390
  21.836314
  22.058671
  22.159485
  22.148848
  21.949495
  22.040449
  21.875723
  22.157145
  22.169695
  22.165746
  22.386381
  22.251271
  22.215446
  22.228182
  22.235717
  22.393455
  22.248069
  22.000225
  22.074945
  22.175442
  22.505983
  22.287927
  22.304374
  21.971406
  22.559534
  22.296496
  22.319429
  21.873188
  22.284459
  22.349651
  22.349180
  22.125694
  22.199545
  22.055719
  22.421759
  22.439031
  22.416222
  22.406880
  22.368543
  21.958352
  22.176205
  22.406958
  22.246610
  22.301115
  22.096179
  21.827695
  22.312900
  22.589439
  22.478810
  22.333051
  22.546650
  22.296452
  22.362329
  22.228981
  22.319182
  22.350364
  22.660857
  22.328722
  22.307319
  22.602567
  22.492995
  22.340762
  22.415135
  22.458395
  22.367382
  22.576577
  22.352799
  22.639948
  22.729591
  22.852209
  22.103586
  22.268234
  22.253702
  22.486169
  22.476306
  22.523365
  22.509942
  22.400543
  22.469241
  22.341051
  22.931120
  22.337362
  22.829386
  22.851782
  22.644607
  22.781905
  22.585963
  22.756493
  22.606268
  22.365674
  22.415885
  22.534355
  22.468536
  22.515304
  22.948653
  22.473127
  22.494604
  22.496534
  22.900806
  22.571766
  22.609832
  22.680214
  22.676880
  22.641801
  22.682239
  22.756255
  22.849534
  23.040306
  22.740709
  22.965781
  22.698564
  22.960054
  22.731247
  22.760239
  22.976691
  22.782913
  22.796351
  22.726398
  22.808056
  23.090616
  23.080436
  22.817583
  22.894065
  22.859607
  22.492986
  23.003344
  22.852519
  22.856348
  22.857347
  22.965828
  23.117810
  23.205448
  22.917771
  22.937965
  23.239558
  22.910187
  22.946278
  22.983925
  23.000019
  22.987982
  23.156954
  22.966180
  23.005129
  23.263812
  23.334500
  22.987472
  23.037540
  23.120267
  23.107274
  23.207381
  23.108901
  23.021573
  23.123996
  23.056554
  23.309640
  23.461280
  23.066107
  23.216408
  23.481327
  23.152043
  23.076773
  23.195923
  23.158717
  23.342638
  23.204463
  23.233032
  23.153083
  23.098257
  23.463082
  23.157746
  23.667170
  23.258524
  23.389050
  23.288985
  23.151369
  23.252650
  23.344588
  23.490416
  23.242170
  23.869214
  23.357603
  23.645338
  23.238508
  23.600696
  23.487742
  23.390705
  23.457259
  23.540594
  23.337025
  23.422834
  23.766959
  23.446752
  23.515455
  23.223652
  23.631609
  23.326138
  23.434320
  23.580263
  23.321637
  24.134958
  23.436779
  23.484018
  23.567229
  24.018330
  23.668785
  23.416353
  23.534546
  23.755559
  23.505704
  23.411922
  23.631299
  23.743777
  23.271023
  23.731045
  23.500463
  23.359069
  23.576174
  23.695015
  23.695003
  23.792731
  23.494963
  23.811598
  23.623832
  23.764961
  23.722291
  23.489035
  23.584546
  23.848685
  23.587461
  23.763335
  23.678614
  23.768479
  23.874423
  23.581605
  23.726864
  23.698997
  23.922629
  23.832862
  23.906293
  23.682803
  23.620660
  23.840722
  23.901447
  23.762122
  23.956703
  23.674179
  23.919884
  23.574395
  23.701289
  23.801380
  23.941846
  23.777431
  24.019759
  23.764663
  24.043764
  23.759433
  23.862275
  23.980158
  24.070835
  24.289026
  23.938997
  24.088259
  23.862195
  24.045033
  23.800305
  24.137626
  23.846163
  23.923896
  24.095365
  23.969879
  23.797545
  23.814350
  24.115510
  23.957489
  24.186166
  24.214571
  24.019162
  23.937892
  24.183753
  24.149503
  23.916227
  24.257226
  24.247145
  24.235697
  24.075314
  24.276708
  24.270725
  24.039593
  23.899061
  24.662460
  24.279559
  24.153099
  24.306992
  24.323227
  23.897531
  24.016616
  24.131953
  24.000469
  24.361373
  24.182272
  24.129546
  24.357937
  24.390906
  24.113157
  24.230612
  24.094249
  24.439117
  24.399073
  24.404622
  24.434493
  24.205125
  24.085536
  24.278316
  24.454523
  24.513813
  24.191691
  24.458027
  24.349264
  24.166279
  24.556513
  24.503822
  24.293123
  24.524842
  24.599772
  24.283958
  24.201437
  24.378787
  24.359042
  24.559401
  24.267962
  24.638530
  24.623619
  24.426260
  24.604178
  24.208923
  24.649614
  24.306492
  24.378006
  24.717535
  24.366925
  24.471693
  24.657623
  24.915530
  24.666466
  24.751153
  24.361380
  24.460260
  24.705219
  24.531357
  24.723158
  24.785778
  24.463067
  24.443451
  24.789835
  24.559359
  24.841243
  24.831196
  24.542512
  24.815812
  24.597634
  24.453460
  24.560686
  24.873199
  24.907421
  24.546256
  24.931929
  24.955492
  24.565195
  24.644336
  24.641370
  24.933165
  24.609426
  24.697820
  24.648311
  24.422070
  24.983156
  25.255219
  24.712612
  25.047369
  25.082645
  25.032592
  24.989507
  24.757249
  25.105883
  25.055783
  24.743534
  24.673344
  25.142947
  24.845455
  25.072101
  24.741886
  25.220707
  24.763921
  25.184799
  24.837713
  24.894870
  25.108263
  24.845765
  25.271497
  25.207487
  25.266238
  24.941714
  24.751565
  25.179354
  25.315223
  24.891506
  25.338035
  25.318385
  24.886708
  24.943439
  24.947805
  25.203689
  25.404461
  24.916732
  24.966794
  24.922674
  25.407916
  25.296819
  25.038232
  25.412729
  25.012835
  25.072563
  25.397064
  25.479485
  25.449088
  25.500524
  25.120365
  25.145529
  25.471841
  25.546897
  25.111656
  25.047418
  25.549839
  24.786005
  25.092615
  25.211584
  25.610446
  25.529391
  25.078937
  25.614959
  25.309763
  25.219802
  25.463186
  25.608309
  25.633859
  25.184950
  25.690381
  25.053663
  25.383883
  25.695873
  25.347314
  25.663531
  25.111096
  25.694998
  25.744558
  25.440824
  25.299005
  25.705052
  24.790736
  25.775586
  25.249640
  25.833770
  25.203660
  25.830326
  25.501858
  25.324893
  25.744700
  25.411800
  25.869627
  25.822243
  25.551834
  25.342176
  25.905655
  25.938034
  25.917984
  25.566060
  25.583929
  25.983832
  25.222608
  25.943009
  25.469926
  25.568375
  26.035805
  25.635212
  25.997654
  25.393959
  26.012918
  25.351630
  26.044893
  25.696271
  25.605405
  26.114479
  26.052454
  25.531279
  26.122121
  25.803590
  26.183987
  26.116149
  25.782482
  25.054480
  26.177037
  25.744261
  25.665545
  26.173163
  25.313234
  25.855883
  26.206693
  26.183060
  26.297782
  25.898165
  25.494791
  26.254894
  26.247282
  25.791709
  25.638701
  26.315787
  25.957090
  25.234179
  26.332606
  26.305612
  25.741500
  26.395049
  25.997100
  25.839644
  26.384946
  26.010020
  25.952996
  25.404636
  26.371615
  26.417047
  26.425797
  26.075069
  26.469283
  26.428031
  25.670384
  26.460125
  26.139193
  25.832615
  26.000678
  26.500821
  26.502607
  25.204340
  26.576352
  26.546301
  26.573640
  26.170210
  26.236481
  26.006244
  26.552239
  26.577217
  25.662529
  26.307176
  26.272000
  26.633875
  26.282397
  26.635518
  26.632688
  26.211444
  25.898879
  26.353903
  26.663407
  26.670856
  26.671561
  26.058716
  26.691319
  26.400190
  26.737998
  26.233872
  26.778843
  26.390080
  26.564265
  26.735664
  26.767560
  26.477958
  25.972038
  26.795646
  26.555008
  26.266582
  26.865295
  26.543109
  26.419232
  26.933982
  26.095311
  26.851658
  26.935276
  26.837051
  26.657416
  26.975357
  25.996293
  26.290537
  26.437862
  26.743486
  26.630834
  26.982715
  26.935736
  27.001814
  26.103974
  26.927319
  26.832802
  26.942823
  27.078487
  26.455719
  26.645471
  27.132895
  26.290242
  27.026674
  26.909535
  26.861235
  27.189096
  27.145746
  26.998739
  26.966261
  27.172233
  26.465136
  27.150321
  27.291237
  26.620776
  26.841146
  27.059636
  27.071668
  27.057546
  26.351716
  27.359292
  27.374042
  27.061649
  26.178175
  26.266641
  26.630808
  27.131841
  27.154849
  27.148001
  26.540632
  27.449000
  27.225595
  27.070231
  27.507685
  26.848699
  27.146848
  26.748976
  27.298083
  26.636776
  27.237130
  27.516636
  27.106028
  27.543516
  27.098498
  26.617953
  27.331927
  27.073524
  27.529329
  26.553779
  27.489519
  27.199339
  27.050779
  26.763009
  27.139621
  26.672940
  27.302657
  27.563237
  27.047826
  26.838147
  27.336390
  27.527073
  27.178312
  26.776760
  27.488074
  27.152417
  27.009137
  26.772712
  27.242163
  27.175092
  26.920305
  27.422567
  27.242658
  26.845122
  26.933266
  27.219371
  26.822621
  27.047213
  27.224504
  27.481423
  26.980367
  26.937589
  27.084480
  26.871160
  26.882163
  27.151389
  26.893961
  26.990398
  27.105995
  26.916416
  26.685474
  27.043269
  26.801194
  26.946757
  26.751397
  26.786087
  26.896011
  26.353774
  27.012305
  27.267678
  26.654713
  27.040725
  26.481236
  26.509615
  27.137356
  26.651504
  26.756644
  26.982146
  26.185844
  26.406846
  26.375102
  26.976487
  26.301212
  27.193363
  27.216623
  26.168260
  26.298770
  26.161002
  26.794775
  25.815737
  26.071840
  27.153511
  27.087569
  26.123766
  26.870930
  27.210029
  27.518092
  26.241481
  25.870586
  26.031735
  26.131462
  27.896737
  25.985952
  26.038307
  26.562839
  27.070401
  26.178314
  26.003657
  25.922520