# vtk DataFile Version 2.0
FSI_Simulation
ASCII

DATASET UNSTRUCTURED_GRID
POINTS 2042 double
  2.500000  0.410000  0.000000
  2.450000  0.410000  0.000000
  2.500000  0.358750  0.000000
  2.455000  0.345150  0.000000
  2.400000  0.410000  0.000000
  2.500000  0.307500  0.000000
  2.409170  0.352960  0.000000
  2.425000  0.303110  0.000000
  2.350000  0.410000  0.000000
  2.359860  0.354270  0.000000
  2.500000  0.256250  0.000000
  2.450000  0.259810  0.000000
  2.375000  0.303110  0.000000
  2.400000  0.259810  0.000000
  2.300000  0.410000  0.000000
  2.500000  0.205000  0.000000
  2.325000  0.303110  0.000000
  2.425000  0.216510  0.000000
  2.300000  0.346410  0.000000
  2.350000  0.259810  0.000000
  2.375000  0.216510  0.000000
  2.450000  0.173210  0.000000
  2.275000  0.303110  0.000000
  2.250000  0.410000  0.000000
  2.300000  0.259810  0.000000
  2.500000  0.153750  0.000000
  2.400000  0.173210  0.000000
  2.250000  0.346410  0.000000
  2.325000  0.216510  0.000000
  2.350000  0.173210  0.000000
  2.429170  0.133880  0.000000
  2.250000  0.259810  0.000000
  2.225000  0.303110  0.000000
  2.275000  0.216510  0.000000
  2.200000  0.410000  0.000000
  2.197270  0.363510  0.000000
  2.375000  0.129900  0.000000
  2.500000  0.102500  0.000000
  2.300000  0.173210  0.000000
  2.450000  0.086600  0.000000
  2.325000  0.129900  0.000000
  2.200000  0.259810  0.000000
  2.225000  0.216510  0.000000
  2.400000  0.086600  0.000000
  2.250000  0.173210  0.000000
  2.170490  0.306770  0.000000
  2.150000  0.410000  0.000000
  2.350000  0.086600  0.000000
  2.500000  0.051250  0.000000
  2.275000  0.129900  0.000000
  2.135420  0.358250  0.000000
  2.429170  0.044630  0.000000
  2.175000  0.216510  0.000000
  2.300000  0.086600  0.000000
  2.150000  0.259810  0.000000
  2.200000  0.173210  0.000000
  2.375000  0.043300  0.000000
  2.225000  0.129900  0.000000
  2.112500  0.313250  0.000000
  2.100000  0.410000  0.000000
  2.325000  0.043300  0.000000
  2.250000  0.086600  0.000000
  2.500000  0.000000  0.000000
  2.450000  0.000000  0.000000
  2.125000  0.216510  0.000000
  2.400000  0.000000  0.000000
  2.150000  0.173210  0.000000
  2.075000  0.366700  0.000000
  2.175000  0.129900  0.000000
  2.275000  0.043300  0.000000
  2.087500  0.269950  0.000000
  2.350000  0.000000  0.000000
  2.200000  0.086600  0.000000
  2.050000  0.410000  0.000000
  2.300000  0.000000  0.000000
  2.050000  0.323400  0.000000
  2.225000  0.043300  0.000000
  2.100000  0.173210  0.000000
  2.125000  0.129900  0.000000
  2.062500  0.226650  0.000000
  2.150000  0.086600  0.000000
  2.025000  0.366700  0.000000
  2.250000  0.000000  0.000000
  2.175000  0.043300  0.000000
  2.025000  0.280100  0.000000
  2.000000  0.410000  0.000000
  2.000000  0.323400  0.000000
  2.200000  0.000000  0.000000
  2.070830  0.133290  0.000000
  2.100000  0.086600  0.000000
  2.037500  0.183350  0.000000
  2.125000  0.043300  0.000000
  1.975000  0.366700  0.000000
  2.000000  0.236790  0.000000
  2.150000  0.000000  0.000000
  1.975000  0.280100  0.000000
  1.950000  0.410000  0.000000
  2.050000  0.086600  0.000000
  1.950000  0.323400  0.000000
  2.012500  0.140050  0.000000
  2.075000  0.043300  0.000000
  1.975000  0.193490  0.000000
  2.100000  0.000000  0.000000
  1.925000  0.366700  0.000000
  1.950000  0.236790  0.000000
  1.925000  0.280100  0.000000
  2.000000  0.086600  0.000000
  1.900000  0.410000  0.000000
  2.025000  0.043300  0.000000
  1.900000  0.323400  0.000000
  1.950000  0.150190  0.000000
  2.050000  0.000000  0.000000
  1.925000  0.193490  0.000000
  1.900000  0.236790  0.000000
  1.875000  0.366700  0.000000
  1.875000  0.280100  0.000000
  1.975000  0.043300  0.000000
  1.937500  0.096750  0.000000
  2.000000  0.000000  0.000000
  1.850000  0.410000  0.000000
  1.902380  0.145780  0.000000
  1.850000  0.323400  0.000000
  1.875000  0.193490  0.000000
  1.850000  0.236790  0.000000
  1.820830  0.365370  0.000000
  1.925000  0.043300  0.000000
  1.950000  0.000000  0.000000
  1.800000  0.410000  0.000000
  1.850000  0.150190  0.000000
  1.877180  0.088810  0.000000
  1.810710  0.280600  0.000000
  1.800000  0.323400  0.000000
  1.820830  0.195410  0.000000
  1.800000  0.236790  0.000000
  1.900000  0.000000  0.000000
  1.875360  0.035430  0.000000
  1.825000  0.106890  0.000000
  1.800000  0.150190  0.000000
  1.750000  0.410000  0.000000
  1.750000  0.358750  0.000000
  1.750000  0.307500  0.000000
  1.750000  0.256250  0.000000
  1.825000  0.043300  0.000000
  1.850000  0.000000  0.000000
  1.750000  0.205000  0.000000
  1.793300  0.076870  0.000000
  1.750000  0.153750  0.000000
  1.700640  0.410000  0.000000
  1.704300  0.327190  0.000000
  1.750000  0.102500  0.000000
  1.800000  0.000000  0.000000
  1.706240  0.242410  0.000000
  1.676060  0.366700  0.000000
  1.679550  0.284150  0.000000
  1.704500  0.168810  0.000000
  1.750000  0.051250  0.000000
  1.682040  0.198780  0.000000
  1.655740  0.327710  0.000000
  1.651490  0.410000  0.000000
  1.750000  0.000000  0.000000
  1.656690  0.241750  0.000000
  1.703750  0.082910  0.000000
  1.678980  0.125940  0.000000
  1.627030  0.366700  0.000000
  1.631170  0.284620  0.000000
  1.654610  0.169080  0.000000
  1.632070  0.198270  0.000000
  1.607330  0.328120  0.000000
  1.602560  0.410000  0.000000
  1.700280  0.000000  0.000000
  1.675600  0.043300  0.000000
  1.655160  0.082380  0.000000
  1.606810  0.241470  0.000000
  1.630810  0.125620  0.000000
  1.578220  0.366700  0.000000
  1.582990  0.284920  0.000000
  1.604730  0.168150  0.000000
  1.578920  0.210800  0.000000
  1.650920  0.000000  0.000000
  1.559000  0.328320  0.000000
  1.553870  0.410000  0.000000
  1.626430  0.043300  0.000000
  1.606660  0.082260  0.000000
  1.556930  0.242380  0.000000
  1.582820  0.125810  0.000000
  1.529630  0.366700  0.000000
  1.534940  0.284960  0.000000
  1.555320  0.166880  0.000000
  1.601940  0.000000  0.000000
  1.530950  0.199810  0.000000
  1.577650  0.043300  0.000000
  1.510670  0.328200  0.000000
  1.505400  0.410000  0.000000
  1.558080  0.082770  0.000000
  1.534730  0.126670  0.000000
  1.507460  0.243800  0.000000
  1.481280  0.366700  0.000000
  1.486910  0.284640  0.000000
  1.506480  0.166500  0.000000
  1.553350  0.000000  0.000000
  1.529250  0.043300  0.000000
  1.482130  0.200990  0.000000
  1.462240  0.327690  0.000000
  1.457160  0.410000  0.000000
  1.509220  0.083990  0.000000
  1.486020  0.128110  0.000000
  1.458500  0.244760  0.000000
  1.433170  0.366700  0.000000
  1.438620  0.283990  0.000000
  1.458930  0.158770  0.000000
  1.505150  0.000000  0.000000
  1.481250  0.043300  0.000000
  1.434180  0.201480  0.000000
  1.459870  0.085670  0.000000
  1.413590  0.326890  0.000000
  1.409170  0.410000  0.000000
  1.409940  0.244800  0.000000
  1.385300  0.366700  0.000000
  1.389560  0.283370  0.000000
  1.409090  0.158420  0.000000
  1.457350  0.000000  0.000000
  1.433650  0.043300  0.000000
  1.386550  0.201040  0.000000
  1.410050  0.086600  0.000000
  1.364750  0.326450  0.000000
  1.361420  0.410000  0.000000
  1.361460  0.243860  0.000000
  1.337670  0.366700  0.000000
  1.409950  0.000000  0.000000
  1.338650  0.284240  0.000000
  1.386460  0.043300  0.000000
  1.354150  0.119670  0.000000
  1.313920  0.410000  0.000000
  1.316290  0.328550  0.000000
  1.332940  0.164270  0.000000
  1.312360  0.242750  0.000000
  1.362970  0.000000  0.000000
  1.290300  0.366700  0.000000
  1.295390  0.283330  0.000000
  1.339680  0.043300  0.000000
  1.325730  0.078680  0.000000
  1.304410  0.123360  0.000000
  1.266670  0.410000  0.000000
  1.266740  0.323400  0.000000
  1.272670  0.239000  0.000000
  1.283210  0.168120  0.000000
  1.316400  0.000000  0.000000
  1.243180  0.366700  0.000000
  1.246180  0.281190  0.000000
  1.293330  0.043300  0.000000
  1.277840  0.081590  0.000000
  1.256410  0.126460  0.000000
  1.219690  0.410000  0.000000
  1.219750  0.323400  0.000000
  1.233390  0.170720  0.000000
  1.222230  0.237350  0.000000
  1.270260  0.000000  0.000000
  1.196320  0.366700  0.000000
  1.247400  0.043300  0.000000
  1.196390  0.280100  0.000000
  1.229040  0.084940  0.000000
  1.205650  0.129050  0.000000
  1.189490  0.207370  0.000000
  1.172960  0.410000  0.000000
  1.173020  0.323400  0.000000
  1.224540  0.000000  0.000000
  1.181510  0.158020  0.000000
  1.201900  0.043300  0.000000
  1.149720  0.366700  0.000000
  1.179360  0.086600  0.000000
  1.143430  0.291070  0.000000
  1.144660  0.247780  0.000000
  1.126490  0.410000  0.000000
  1.142770  0.189580  0.000000
  1.179250  0.000000  0.000000
  1.134770  0.140320  0.000000
  1.156830  0.043300  0.000000
  1.103400  0.366700  0.000000
  1.100860  0.316520  0.000000
  1.099450  0.268150  0.000000
  1.103580  0.220000  0.000000
  1.080300  0.410000  0.000000
  1.096330  0.172140  0.000000
  1.134410  0.000000  0.000000
  1.100760  0.105310  0.000000
  1.058360  0.324420  0.000000
  1.099400  0.056460  0.000000
  1.059350  0.282410  0.000000
  1.062400  0.233330  0.000000
  1.051490  0.361960  0.000000
  1.062400  0.206670  0.000000
  1.062400  0.140000  0.000000
  1.034380  0.410000  0.000000
  1.090000  0.000000  0.000000
  1.032380  0.305960  0.000000
  1.027830  0.333570  0.000000
  1.033760  0.246670  0.000000
  1.028220  0.281830  0.000000
  1.059860  0.078570  0.000000
  1.030770  0.220170  0.000000
  1.033760  0.193330  0.000000
  1.015410  0.368300  0.000000
  1.056850  0.040910  0.000000
  1.013850  0.293330  0.000000
  1.011380  0.313820  0.000000
  1.013850  0.280000  0.000000
  1.013850  0.266670  0.000000
  1.013850  0.240000  0.000000
  1.012290  0.252000  0.000000
  1.025480  0.152840  0.000000
  1.013850  0.226670  0.000000
  1.028350  0.124560  0.000000
  1.002130  0.333160  0.000000
  1.012290  0.214670  0.000000
  1.013850  0.200000  0.000000
  1.032380  0.094040  0.000000
  1.000000  0.300000  0.000000
  1.012290  0.188000  0.000000
  1.013850  0.173330  0.000000
[...]
POINT_DATA 2042
SCALARS pressure double
LOOKUP_TABLE default
  0.205855
  0.743165
  -0.035766
  0.603270
  1.143556
  0.196030
  0.955685
  0.535756
  0.812093
  0.981746
  0.026622
  0.257840
  0.822382
  0.585451
  0.664116
  -0.118658
  1.026207
  0.404128
  0.914155
  0.928196
  0.753478
  0.323523
  1.324321
  1.655278
  1.174141
  0.040587
  0.664600
  1.311341
  1.016012
  0.935998
  0.585433
  1.274469
  1.320990
  1.203152
  1.715973
  1.716293
  0.882089
  -0.002457
  1.150936
  0.663026
  1.095876
  1.504200
  1.446661
  0.939389
  1.371110
  1.834814
  1.655647
  1.094417
  -0.002864
  1.288764
  1.857472
  1.078442
  1.642839
  1.264367
  1.767680
  1.534221
  1.158150
  1.458135
  1.914903
  2.091305
  1.236389
  1.421932
  -0.044867
  0.880200
  1.863952
  1.112762
  1.729216
  2.163669
  1.640491
  1.370240
  1.943477
  1.207482
  1.586185
  2.243454
  1.323441
  2.216319
  1.514130
  1.892582
  1.792610
  2.056097
  1.755896
  2.274476
  1.465922
  1.661239
  2.176487
  2.344188
  2.331918
  1.610066
  1.968203
  1.902893
  2.097387
  1.789889
  2.385651
  2.275596
  1.766477
  2.315614
  2.489204
  2.058800
  2.484585
  2.165593
  1.929257
  2.315236
  1.874170
  2.535601
  2.425811
  2.473430
  2.192795
  2.700956
  2.095945
  2.612468
  2.351825
  2.055808
  2.463895
  2.576838
  2.694868
  2.601915
  2.154846
  2.410858
  2.192344
  2.869598
  2.532472
  2.699367
  2.665381
  2.707401
  2.694277
  2.317209
  2.070159
  2.588897
  2.723621
  2.520505
  2.822099
  2.898926
  2.786513
  2.887923
  2.827492
  2.727401
  2.764477
  2.895615
  2.856557
  2.942547
  3.005608
  3.039590
  2.745737
  2.785538
  3.111342
  2.924737
  3.049383
  3.335148
  3.236495
  3.066920
  2.633086
  3.210266
  3.508726
  3.365154
  3.238048
  2.958823
  3.353835
  3.469067
  3.518780
  2.878722
  3.399857
  3.337453
  3.423919
  3.615885
  3.556998
  3.467347
  3.557084
  3.633259
  3.649086
  3.377376
  3.570372
  3.544938
  3.603755
  3.616177
  3.728555
  3.703084
  3.652493
  3.711590
  3.555384
  3.782991
  3.798570
  3.654538
  3.682833
  3.788870
  3.733655
  3.879116
  3.858658
  3.799515
  3.680707
  3.872919
  3.757022
  3.942634
  3.960849
  3.809673
  3.871334
  3.939201
  4.024410
  4.005680
  3.942276
  3.831834
  3.889276
  4.015350
  4.094297
  4.107022
  3.952296
  4.024473
  4.095800
  4.167430
  4.157086
  4.080052
  3.971779
  4.025661
  4.165650
  4.094806
  4.245753
  4.248707
  4.246994
  4.313141
  4.306475
  4.210289
  4.101209
  4.105605
  4.319019
  4.194629
  4.413695
  4.382144
  4.436047
  4.436057
  4.187338
  4.482666
  4.260546
  4.413823
  4.542304
  4.546874
  4.498864
  4.582296
  4.376340
  4.610124
  4.600536
  4.431357
  4.526210
  4.584141
  4.704359
  4.698789
  4.737412
  4.672022
  4.551298
  4.744742
  4.758436
  4.566747
  4.691890
  4.740435
  4.822598
  4.872727
  4.865820
  4.903512
  4.700342
  4.850177
  4.661409
  4.969906
  4.845659
  4.865746
  5.001108
  5.043879
  5.021095
  4.904363
  5.051839
  4.881782
  5.032991
  4.898879
  5.141545
  5.203151
  5.263346
  5.192943
  5.275067
  5.272599
  4.849884
  5.158636
  5.283667
  5.377437
  5.402932
  5.160143
  5.350837
  4.924469
  5.291380
  5.578266
  4.937112
  5.578389
  5.649249
  5.436974
  5.622073
  5.456931
  5.579035
  5.020956
  5.811925
  5.793445
  5.764489
  5.853262
  5.476151
  5.826417
  5.775569
  5.751144
  5.093374
  5.997060
  5.994980
  5.984041
  5.965200
  5.948868
  5.965281
  5.808921
  5.953456
  5.760414
  6.184808
  5.957217
  5.920112
  5.624413
  6.093060
  5.915065
  5.907438
  6.075008
  6.072194
  6.066945
  5.933996
  6.063278
  5.496223
  5.912036
  6.178163
  6.059352
  5.172553
  6.081859
  5.894139
  6.054722
  6.097452
  6.043603
  5.895515
  6.032910
  5.886801
  6.181776
  6.029890
  6.162442
  6.031275
  6.030763
  6.162791
  5.789417
  6.183330
  6.019370
  6.216145
  6.143214
  6.202629
  6.218586
  6.005080
  6.123651
  6.157460
  5.971890
  6.129566
  6.245535
  5.946820
  6.214658
  6.259145
  6.250308
  6.210967
  6.116725
  6.167040
  6.205266
  6.305440
  6.246429
  6.311995
  6.297404
  6.072451
  6.122511
  6.314401
  6.182043
  6.293457
  5.999224
  6.234841
  6.274465
  6.350248
  6.308782
  6.061228
  6.361216
  6.350004
  6.210942
  6.378258
  6.274070
  6.415365
  6.312986
  6.159660
  6.368695
  6.348461
  6.397125
  6.132932
  6.102988
  6.426786
  5.840024
  6.294550
  6.616316
  6.339490
  6.252592
  6.378341
  6.475698
  6.780080
  6.413948
  6.437202
  6.155081
  6.465457
  6.316291
  6.502451
  6.374664
  6.408972
  6.573277
  6.281303
  6.472130
  6.454249
  6.500471
  6.528500
  6.645498
  6.199083
  6.402170
  6.447173
  6.367222
  6.483253
  6.564932
  6.514122
  6.540895
  6.301279
  6.565793
  6.296625
  6.596417
  6.482825
  6.516011
  6.444840
  6.398038
  6.576874
  6.558245
  6.582949
  6.600566
  6.625123
  6.307266
  6.520177
  6.557703
  6.524391
  6.588675
  6.482764
  6.656591
  6.619969
  6.418885
  6.644161
  6.661300
  6.232667
  6.689077
  6.595530
  6.561164
  6.629961
  6.644585
  6.656145
  6.518535
  6.678981
  6.703602
  6.725956
  6.723928
  6.517336
  6.751511
  6.636506
  6.668092
  6.696994
  6.261803
  6.613011
  6.739989
  6.767171
  6.725635
  6.601317
  6.767855
  6.790564
  6.707547
  6.735997
  6.681485
  6.761543
  6.835717
  6.663456
  6.784366
  6.819521
  6.807075
  6.828436
  6.788583
  6.855302
  6.751818
  6.779805
  6.805322
  6.825228
  6.738421
  6.844537
  6.886338
  6.753844
  6.607362
  6.862247
  6.763115
  6.895746
  6.899625
  6.820022
  6.845499
  6.799465
  6.870064
  6.942056
  6.901605
  6.890583
  6.838599
  6.860152
  6.931459
  6.945512
  6.889971
  6.864454
  6.931428
  6.915052
  6.950634
  6.855785
  6.968774
  6.808022
  6.965696
  6.991173
  6.932511
  6.955880
  6.907027
  6.976900
  7.005858
  6.997351
  7.031021
  6.900975
  7.030787
  6.896574
  6.974375
  7.053852
  7.002336
  7.024103
  6.961250
  7.039701
  7.057298
  6.931233
  7.072957
  7.070208
  6.747175
  7.097247
  7.045642
  7.021420
  7.065630
  7.086202
  7.101129
  7.110649
  7.089873
  7.121367
  7.139362
  7.137039
  7.005517
  7.089258
  7.109454
  7.094994
  7.133870
  7.070586
  7.148635
  7.020935
  7.164362
  7.057977
  7.141132
  7.175720
  7.198834
  7.141651
  7.112775
  7.159120
  7.118876
  7.176246
  7.195637
  7.208945
  7.225464
  7.213452
  7.114115
  7.256737
  7.232321
  7.241552
  7.203284
  7.221009
  7.239578
  7.202692
  7.256063
  7.204159
  7.272276
  7.204475
  7.278779
  7.236560
  7.287097
  7.265422
  7.272737
  7.287474
  7.304612
  7.317471
  7.257614
  7.332467
  7.345505
  7.327964
  7.277281
  7.317357
  7.333030
  7.348838
  7.318831
  7.365095
  7.320459
  7.380377
  7.383386
  7.393287
  7.390481
  7.396360
  7.310335
  7.381360
  7.367567
  7.394454
  7.410172
  7.520877
  7.425823
  7.469645
  7.355565
  7.441121
  7.351036
  7.453665
  7.454421
  7.443082
  7.427593
  7.458405
  7.473777
  7.492261
  7.433511
  7.489156
  7.519091
  7.504300
  7.519375
  7.456200
  7.491603
  7.503951
  7.518453
  7.534700
  7.688267
  7.590863
  7.548784
  7.560737
  7.569639
  7.502470
  7.573645
  7.563732
  7.553708
  7.546043
  7.550626
  7.605679
  7.583178
  7.601375
  7.557234
  7.597575
  7.605390
  7.614270
  7.593677
  7.610444
  7.602659
  7.626838
  7.642905
  7.588324
  7.657939
  7.592947
  7.653376
  7.677354
  7.682147
  7.658706
  7.649875
  7.673958
  7.701518
  7.688245
  7.600620
  7.653332
  7.706391
  7.708041
  7.722759
  7.726555
  7.703837
  7.718331
  7.704403
  7.735456
  7.714102
  7.630281
  7.752012
  7.764908
  7.779757
  7.744098
  7.633834
  7.785615
  7.765240
  7.759887
  7.805644
  7.781412
  7.842668
  7.796586
  7.776295
  7.814147
  7.831209
  7.831921
  7.837212
  7.844947
  7.810708
  7.823704
  7.819677
  7.843133
  7.860019
  7.877129
  7.872427
  7.874704
  7.850338
  7.888872
  7.895899
  7.904883
  7.883370
  7.868408
  7.863525
  7.905602
  7.926678
  7.880626
  7.924343
  7.617503
  7.939029
  7.949546
  7.946638
  7.955105
  7.910781
  7.928256
  7.944467
  7.912346
  7.950503
  7.974261
  7.984301
  7.999086
  7.912829
  8.002996
  7.965097
  7.955447
  8.009414
  7.988887
  7.837742
  8.016013
  8.014767
  7.960595
  8.035211
  8.050776
  8.034647
  8.054542
  7.979818
  8.060499
  8.005308
  8.026757
  8.051722
  7.963512
  8.081740
  8.094640
  8.101327
  8.104418
  8.021127
  8.008179
  8.108420
  8.110161
  8.063467
  8.090437
  8.052635
  8.124903
  8.046936
  8.191259
  8.148168
  8.157762
  8.146680
  8.163413
  8.169255
  8.103010
  8.127567
  8.159238
  8.196160
  8.218730
  8.208556
  8.218036
  8.215415
  8.133122
  8.221489
  8.161069
  8.144340
  8.193996
  8.043569
  8.237739
  8.253859
  8.137993
  8.247300
  8.280353
  8.237244
  8.266613
  8.268009
  8.195472
  8.224787
  8.266145
  8.128353
  8.314648
  8.325170
  8.372774
  8.243123
  8.331998
  8.181790
  8.317773
  8.251993
  8.226202
  8.293995
  8.352106
  8.317121
  8.377187
  8.211631
  8.175261
  8.391885
  8.304589
  8.372752
  8.281936
  8.318443
  8.371299
  8.368014
  8.436727
  8.268742
  8.449685
  8.446487
  8.239086
  8.415313
  8.378343
  8.337363
  8.297326
  8.391787
  8.461552
  8.207640
  8.516276
  8.289957
  8.511775
  8.431914
  8.414668
  8.477956
  8.401577
  8.459988
  8.356052
  8.407530
  8.473792
  8.565840
  8.581730
  8.447075
  8.456139
  8.557415
  8.290654
  8.239803
  8.512846
  8.488024
  8.419304
  8.364325
  8.482830
  8.575552
  8.348981
  8.652525
  8.578538
  8.636910
  8.576970
  8.511099
  8.314380
  8.548199
  8.425814
  8.490696
  8.566888
  8.687397
  8.540023
  8.324464
  8.714715
  8.601606
  8.667987
  8.602373
  8.573775
  8.494349
  8.566484
  8.666794
  8.418569
  8.790948
  8.544420
  8.747143
  8.670269
  8.371878
  8.586254
  8.613466
  8.565461
  8.499611
  8.649135
  8.786893
  8.604628
  8.837292
  8.761852
  8.456286
  8.668790
  8.634875
  8.736423
  8.640672
  8.574780
  8.636590
  8.532321
  8.881480
  8.483600
  8.853540
  8.587681
  8.740359
  8.643265
  8.676812
  8.319933
  8.660139
  8.593928
  8.635311
  8.846762
  8.708337
  8.925059
  8.837159
  8.596655
  8.654755
  8.726334
  8.693712
  8.645070
  8.694015
  8.626987
  8.779953
  8.620203
  8.950097
  8.926664
  8.788988
  8.723273
  8.680857
  8.714703
  8.659070
  8.693852
  8.830761
  8.748744
  9.018181
  8.850932
  8.665241
  8.701113
  8.751850
  8.739596
  8.701606
  8.740508
  8.670141
  8.782867
  8.746769
  8.751553
  8.879041
  8.770163
  8.759449
  8.758410
  8.763537
  8.900655
  8.788668
  8.712254
  8.739381
  8.780708
  8.917675
  8.758285
  8.794774
  8.706212
  8.936925
  8.791278
  8.783842
  8.679248
  8.795204
  8.737595
  8.801504
  8.754287
  8.770302
  8.730485
  8.761308
  8.840232
  8.816301
  8.786032
  8.725371
  8.693552
  8.768123
  8.746204
  8.786131
  8.775530
  8.741630
  8.635590
  8.703295
  8.897402
  8.825871
  8.730661
  8.865271
  8.804183
  8.809639
  8.789034
  8.583484
  8.609412
  8.919428
  8.816238
  8.544868
  8.872919
  8.737599
  8.606250
  8.832833
  8.811500
  8.650247
  8.811588
  8.833009
  8.867076
  8.932101
  8.989608
  8.746068
  8.439226
  8.439893
  8.864441
  8.875985
  8.849556
  8.765481
  8.532642
  8.633490
  8.477659
  9.026326
  8.509109
  9.045364
  8.987924
  8.782938
  8.934446
  8.881815
  8.885341
  8.843028
  8.480439
  8.512540
  8.701010
  8.551541
  8.881953
  9.016556
  8.557642
  8.876651
  8.598209
  8.995458
  8.665083
  8.914987
  8.895229
  8.827415
  8.700942
  8.929824
  8.790877
  8.894507
  9.070780
  8.779987
  9.007214
  8.742394
  9.044936
  8.804472
  8.943877
  8.987765
  8.905344
  8.820021
  8.965846
  8.818087
  9.078191
  9.065249
  9.019337
  8.884797
  8.843594
  8.871404
  8.972549
  9.009737
  8.963315
  8.905182
  8.925753
  9.060161
  9.156227
  8.891979
  8.895564
  9.157825
  9.015779
  8.922116
  8.932456
  8.923702
  8.913558
  9.060021
  8.984930
  9.073748
  9.135929
  9.210480
  9.030332
  8.965235
  9.006145
  9.126963
  9.066115
  8.982968
  9.071016
  9.021478
  9.006174
  9.140801
  9.183148
  9.046597
  9.046091
  9.259172
  9.031173
  9.078598
  9.020019
  9.040286
  9.138645
  9.057457
  9.037345
  9.071334
  9.109140
  9.216159
  9.099520
  9.358207
  9.087964
  9.140572
  9.061561
  9.117176
  9.101594
  9.143831
  9.215344
  9.122980
  9.474400
  9.095031
  9.316954
  9.143788
  9.281295
  9.177709
  9.161856
  9.163647
  9.225239
  9.155022
  9.282842
  9.387019
  9.195559
  9.193029
  9.149971
  9.283504
  9.170996
  9.185250
  9.226490
  9.189402
  9.595166
  9.196075
  9.210054
  9.219580
  9.509452
  9.291707
  9.199290
  9.235718
  9.346825
  9.310248
  9.217373
  9.248094
  9.337174
  9.179771
  9.314867
  9.228368
  9.200655
  9.251311
  9.276826
  9.283572
  9.350884
  9.242681
  9.362438
  9.274826
  9.311734
  9.287486
  9.258597
  9.256995
  9.373426
  9.275487
  9.287526
  9.295710
  9.300674
  9.382546
  9.285967
  9.320626
  9.307103
  9.404641
  9.333438
  9.389932
  9.311248
  9.327358
  9.356557
  9.374273
  9.333898
  9.418838
  9.319107
  9.382891
  9.304673
  9.345593
  9.345238
  9.387667
  9.347830
  9.443775
  9.353363
  9.473689
  9.360057
  9.376578
  9.393144
  9.471686
  9.635927
  9.421663
  9.468649
  9.391780
  9.431920
  9.392484
  9.498415
  9.393786
  9.410545
  9.491011
  9.433502
  9.398822
  9.380523
  9.474263
  9.426526
  9.521701
  9.535308
  9.449293
  9.429113
  9.512223
  9.521455
  9.425682
  9.556616
  9.546508
  9.536331
  9.476930
  9.561662
  9.568807
  9.472161
  9.420713
  9.741626
  9.568958
  9.521715
  9.584593
  9.582178
  9.380910
  9.466143
  9.505878
  9.461941
  9.598342
  9.531980
  9.510298
  9.607256
  9.612395
  9.505889
  9.547669
  9.499074
  9.633367
  9.609704
  9.624387
  9.623279
  9.544885
  9.492560
  9.570417
  9.647023
  9.668201
  9.542415
  9.639828
  9.610048
  9.524609
  9.683606
  9.663758
  9.583313
  9.671699
  9.712549
  9.579589
  9.540995
  9.620337
  9.610219
  9.686473
  9.574426
  9.721111
  9.708806
  9.638711
  9.709891
  9.537117
  9.724843
  9.583017
  9.620444
  9.766164
  9.618748
  9.660526
  9.713546
  9.824636
  9.731861
  9.766361
  9.616165
  9.656437
  9.725129
  9.691250
  9.765823
  9.795335
  9.660980
  9.649054
  9.798006
  9.701034
  9.813179
  9.795443
  9.692187
  9.822543
  9.709550
  9.650195
  9.706102
  9.851423
  9.846222
  9.699515
  9.831338
  9.858912
  9.702230
  9.736733
  9.741967
  9.881228
  9.725375
  9.764008
  9.746017
  9.624129
  9.897629
  9.964618
  9.776483
  9.908255
  9.902652
  9.909812
  9.887850
  9.799361
  9.919047
  9.937745
  9.792300
  9.740603
  9.961658
  9.858344
  9.932538
  9.786648
  9.962286
  9.795686
  9.962775
  9.833985
  9.877572
  9.933834
  9.839417
  9.977467
  9.992422
  10.011447
  9.901256
  9.774191
  9.974891
  10.008645
  9.858082
  10.027031
  10.046933
  9.834590
  9.891372
  9.888007
  9.975800
  10.038974
  9.863896
  9.880931
  9.856184
  10.067424
  10.029191
  9.943045
  10.094948
  9.912908
  9.950517
  10.098667
  10.111127
  10.113811
  10.088326
  9.983299
  9.995245
  10.139140
  10.122740
  9.963249
  9.903861
  10.158145
  9.790618
  9.943620
  10.029129
  10.132439
  10.169960
  9.922244
  10.163593
  10.096338
  10.014331
  10.028637
  10.209040
  10.205181
  9.996054
  10.213043
  9.903673
  10.139787
  10.174066
  10.102035
  10.235041
  9.929734
  10.244660
  10.211893
  10.169763
  10.055505
  10.246479
  9.794421
  10.266560
  10.014631
  10.226656
  9.978300
  10.266612
  10.199050
  9.858063
  10.252685
  10.119873
  10.228983
  10.302652
  10.222498
  10.060299
  10.319569
  10.271762
  10.356488
  10.221785
  10.228665
  10.319070
  9.971716
  10.377380
  10.136286
  10.216616
  10.304032
  10.247195
  10.408622
  10.069762
  10.395714
  10.031828
  10.369600
  10.288084
  10.215264
  10.362404
  10.430500
  10.149468
  10.432133
  10.357440
  10.374678
  10.472082
  10.337038
  9.907266
  10.409168
  10.300796
  10.232085
  10.503056
  10.001828
  10.385493
  10.498965
  10.514134
  10.400346
  10.408202
  10.093021
  10.472007
  10.554353
  10.304937
  10.174748
  10.444996
  10.437669
  9.955840
  10.542276
  10.594458
  10.237208
  10.448695
  10.456719
  10.310032
  10.501856
  10.465424
  10.417458
  10.035298
  10.633061
  10.622531
  10.658711
  10.509197
  10.457048
  10.669220
  10.166942
  10.570555
  10.554576
  10.254893
  10.401951
  10.715815
  10.513069
  9.950027
  10.488820
  10.656545
  10.501879
  10.548509
  10.617181
  10.366719
  10.751626
  10.579929
  10.137768
  10.667075
  10.164339
  10.742626
  10.636756
  10.804048
  10.507908
  10.528346
  10.245533
  10.690588
  10.663429
  10.825504
  10.564180
  10.347871
  10.844882
  10.715288
  10.872670
  10.485419
  10.783613
  10.670457
  10.381692
  10.533519
  10.644413
  10.767998
  10.251435
  10.920515
  10.818957
  10.449783
  10.963576
  10.789899
  10.615342
  10.578914
  10.302571
  10.728276
  10.977493
  10.600290
  10.881900
  11.049866
  10.233196
  10.405497
  10.547671
  10.935314
  10.784545
  10.875109
  10.572637
  11.044216
  10.279593
  10.671683
  10.973067
  10.576089
  11.129038
  10.491418
  10.692219
  11.015414
  10.349644
  10.762836
  11.022757
  10.964658
  11.140619
  10.622548
  10.604053
  11.029437
  10.899552
  10.432802
  10.578557
  11.213136
  10.572096
  10.827070
  10.566565
  11.094061
  10.637181
  10.338300
  11.188649
  11.091731
  10.548536
  10.268389
  10.297125
  10.500110
  11.060259
  10.564401
  10.679860
  10.413885
  11.228327
  11.079563
  10.519059
  11.158971
  10.633412
  10.956524
  10.529911
  10.761890
  10.434996
  11.012108
  10.803787
  10.511741
  11.111481
  10.474175
  10.425405
  11.001587
  10.436184
  10.966145
  10.390876
  10.841603
  10.557608
  10.666707
  10.455958
  10.396390
  10.405569
  10.864853
  10.912066
  10.317608
  10.427313
  10.801392
  10.772953
  10.310910
  10.409310
  10.707751
  10.437042
  10.137726
  10.430311
  10.597417
  10.519628
  10.360338
  10.570805
  10.501682
  10.354191
  9.886468
  10.518097
  10.393045
  10.242805
  10.259445
  10.725415
  9.864693
  10.008842
  10.267548
  10.230555
  10.050896
  10.150850
  10.350654
  10.136683
  10.311775
  9.824561
  9.580553
  10.490935
  9.958358
  10.004664
  9.846948
  9.706777
  10.192783
  9.138419
  10.377626
  10.450790
  9.742058
  10.111399
  9.442828
  9.449686
  10.520749
  9.555688
  9.890924
  10.252869
  9.057905
  9.478672
  9.339629
  10.504970
  9.210824
  10.476182
  10.261230
  8.983414
  9.373774
  9.189004
  9.695646
  8.708446
  9.138632
  10.339399
  10.046812
  9.133046
  9.958952
  10.598758
  10.489612
  9.139405
  8.846243
  9.127174
  9.169193
  11.042241
  8.969550
  9.068937
  9.527373
  10.185876
  8.978198
  9.045093
  9.051272
  10.805482
  9.130708
  9.204239
  8.744516
  8.882872
  9.010336
  9.084523
  10.207910
  8.559253
  8.963382
  11.060731
  9.093683
  8.693055
  10.498532
  9.246844
  9.044755
  8.924063
  9.263716
  9.168332
  9.054535
  8.701101
  8.918640
  9.215008
  8.873346
  8.612859
  8.921771
  10.460224
  9.755612
  9.235162
  8.718578
  10.279309
  8.693693
  8.895149
  9.091050
  8.682239
  9.991785
  8.917027
  8.668891
  9.589952
  8.920538
  8.982090
  8.419515
  8.574229
  8.486543
  8.688236
  8.350693
  8.624020
  8.450315
  8.668367
  10.226334
  8.431466
  8.668771
  8.424197
  8.677334
  10.469630
  8.090995
  8.494014
  10.238257
  10.616169
  8.417818
  8.039433
  9.561207
  9.773329
  9.055044
  8.434982
  8.366545
  7.946884
  8.425684
  7.999531
  8.366396
  8.436778
  7.995633
  10.806305
  11.078286
  10.297042
  8.094257
  10.557522
  7.583871
  7.991140
  7.503735
  8.006167
  8.002296
  7.440030
  7.438988
  7.964478
  10.737151
  7.551442
  10.295037
  10.809647
  8.351413
  9.841185
  8.469113
  9.626676
  7.565997
  11.489788
  7.422105
  7.112134
  7.438529
  7.415207
  6.947920
  6.845787
  6.859641
  10.488765
  11.031420
  10.736736
  7.539188
  7.363638
  9.890203