# vtk DataFile Version 2.0
FSI_Simulation
ASCII

DATASET UNSTRUCTURED_GRID
POINTS 2042 double
  2.500000  0.410000  0.000000
  2.450000  0.410000  0.000000
  2.500000  0.358750  0.000000
  2.455000  0.345150  0.000000
  2.400000  0.410000  0.000000
  2.500000  0.307500  0.000000
  2.409170  0.352960  0.000000
  2.425000  0.303110  0.000000
  2.350000  0.410000  0.000000
  2.359860  0.354270  0.000000
  2.500000  0.256250  0.000000
  2.450000  0.259810  0.000000
  2.375000  0.303110  0.000000
  2.400000  0.259810  0.000000
  2.300000  0.410000  0.000000
  2.500000  0.205000  0.000000
  2.325000  0.303110  0.000000
  2.425000  0.216510  0.000000
  2.300000  0.346410  0.000000
  2.350000  0.259810  0.000000
  2.375000  0.216510  0.000000
  2.450000  0.173210  0.000000
  2.275000  0.303110  0.000000
  2.250000  0.410000  0.000000
  2.300000  0.259810  0.000000
  2.500000  0.153750  0.000000
  2.400000  0.173210  0.000000
  2.250000  0.346410  0.000000
  2.325000  0.216510  0.000000
  2.350000  0.173210  0.000000
  2.429170  0.133880  0.000000
  2.250000  0.259810  0.000000
  2.225000  0.303110  0.000000
  2.275000  0.216510  0.000000
  2.200000  0.410000  0.000000
  2.197270  0.363510  0.000000
  2.375000  0.129900  0.000000
  2.500000  0.102500  0.000000
  2.300000  0.173210  0.000000
  2.450000  0.086600  0.000000
  2.325000  0.129900  0.000000
  2.200000  0.259810  0.000000
  2.225000  0.216510  0.000000
  2.400000  0.086600  0.000000
  2.250000  0.173210  0.000000
  2.170490  0.306770  0.000000
  2.150000  0.410000  0.000000
  2.350000  0.086600  0.000000
  2.500000  0.051250  0.000000
  2.275000  0.129900  0.000000
  2.135420  0.358250  0.000000
  2.429170  0.044630  0.000000
  2.175000  0.216510  0.000000
  2.300000  0.086600  0.000000
  2.150000  0.259810  0.000000
  2.200000  0.173210  0.000000
  2.375000  0.043300  0.000000
  2.225000  0.129900  0.000000
  2.112500  0.313250  0.000000
  2.100000  0.410000  0.000000
  2.325000  0.043300  0.000000
  2.250000  0.086600  0.000000
  2.500000  0.000000  0.000000
  2.450000  0.000000  0.000000
  2.125000  0.216510  0.000000
  2.400000  0.000000  0.000000
  2.150000  0.173210  0.000000
  2.075000  0.366700  0.000000
  2.175000  0.129900  0.000000
  2.275000  0.043300  0.000000
  2.087500  0.269950  0.000000
  2.350000  0.000000  0.000000
  2.200000  0.086600  0.000000
  2.050000  0.410000  0.000000
  2.300000  0.000000  0.000000
  2.050000  0.323400  0.000000
  2.225000  0.043300  0.000000
  2.100000  0.173210  0.000000
  2.125000  0.129900  0.000000
  2.062500  0.226650  0.000000
  2.150000  0.086600  0.000000
  2.025000  0.366700  0.000000
  2.250000  0.000000  0.000000
  2.175000  0.043300  0.000000
  2.025000  0.280100  0.000000
  2.000000  0.410000  0.000000
  2.000000  0.323400  0.000000
  2.200000  0.000000  0.000000
  2.070830  0.133290  0.000000
  2.100000  0.086600  0.000000
  2.037500  0.183350  0.000000
  2.125000  0.043300  0.000000
  1.975000  0.366700  0.000000
  2.000000  0.236790  0.000000
  2.150000  0.000000  0.000000
  1.975000  0.280100  0.000000
  1.950000  0.410000  0.000000
  2.050000  0.086600  0.000000
  1.950000  0.323400  0.000000
  2.012500  0.140050  0.000000
  2.075000  0.043300  0.000000
  1.975000  0.193490  0.000000
  2.100000  0.000000  0.000000
  1.925000  0.366700  0.000000
  1.950000  0.236790  0.000000
  1.925000  0.280100  0.000000
  2.000000  0.086600  0.000000
  1.900000  0.410000  0.000000
  2.025000  0.043300  0.000000
  1.900000  0.323400  0.000000
  1.950000  0.150190  0.000000
  2.050000  0.000000  0.000000
  1.925000  0.193490  0.000000
  1.900000  0.236790  0.000000
  1.875000  0.366700  0.000000
  1.875000  0.280100  0.000000
  1.975000  0.043300  0.000000
  1.937500  0.096750  0.000000
  2.000000  0.000000  0.000000
  1.850000  0.410000  0.000000
  1.902380  0.145780  0.000000
  1.850000  0.323400  0.000000
  1.875000  0.193490  0.000000
  1.850000  0.236790  0.000000
  1.820830  0.365370  0.000000
  1.925000  0.043300  0.000000
  1.950000  0.000000  0.000000
  1.800000  0.410000  0.000000
  1.850000  0.150190  0.000000
  1.877180  0.088810  0.000000
  1.810710  0.280600  0.000000
  1.800000  0.323400  0.000000
  1.820830  0.195410  0.000000
  1.800000  0.236790  0.000000
  1.900000  0.000000  0.000000
  1.875360  0.035430  0.000000
  1.825000  0.106890  0.000000
  1.800000  0.150190  0.000000
  1.750000  0.410000  0.000000
  1.750000  0.358750  0.000000
  1.750000  0.307500  0.000000
  1.750000  0.256250  0.000000
  1.825000  0.043300  0.000000
  1.850000  0.000000  0.000000
  1.750000  0.205000  0.000000
  1.793300  0.076870  0.000000
  1.750000  0.153750  0.000000
  1.700640  0.410000  0.000000
  1.704300  0.327190  0.000000
  1.750000  0.102500  0.000000
  1.800000  0.000000  0.000000
  1.706240  0.242410  0.000000
  1.676060  0.366700  0.000000
  1.679550  0.284150  0.000000
  1.704500  0.168810  0.000000
  1.750000  0.051250  0.000000
  1.682040  0.198780  0.000000
  1.655740  0.327710  0.000000
  1.651490  0.410000  0.000000
  1.750000  0.000000  0.000000
  1.656690  0.241750  0.000000
  1.703750  0.082910  0.000000
  1.678980  0.125940  0.000000
  1.627030  0.366700  0.000000
  1.631170  0.284620  0.000000
  1.654610  0.169080  0.000000
  1.632070  0.198270  0.000000
  1.607330  0.328120  0.000000
  1.602560  0.410000  0.000000
  1.700280  0.000000  0.000000
  1.675600  0.043300  0.000000
  1.655160  0.082380  0.000000
  1.606810  0.241470  0.000000
  1.630810  0.125620  0.000000
  1.578220  0.366700  0.000000
  1.582990  0.284920  0.000000
  1.604730  0.168150  0.000000
  1.578920  0.210800  0.000000
  1.650920  0.000000  0.000000
  1.559000  0.328320  0.000000
  1.553870  0.410000  0.000000
  1.626430  0.043300  0.000000
  1.606660  0.082260  0.000000
  1.556930  0.242380  0.000000
  1.582820  0.125810  0.000000
  1.529630  0.366700  0.000000
  1.534940  0.284960  0.000000
  1.555320  0.166880  0.000000
  1.601940  0.000000  0.000000
  1.530950  0.199810  0.000000
  1.577650  0.043300  0.000000
  1.510670  0.328200  0.000000
  1.505400  0.410000  0.000000
  1.558080  0.082770  0.000000
  1.534730  0.126670  0.000000
  1.507460  0.243800  0.000000
  1.481280  0.366700  0.000000
  1.486910  0.284640  0.000000
  1.506480  0.166500  0.000000
  1.553350  0.000000  0.000000
  1.529250  0.043300  0.000000
  1.482130  0.200990  0.000000
  1.462240  0.327690  0.000000
  1.457160  0.410000  0.000000
  1.509220  0.083990  0.000000
  1.486020  0.128110  0.000000
  1.458500  0.244760  0.000000
  1.433170  0.366700  0.000000
  1.438620  0.283990  0.000000
  1.458930  0.158770  0.000000
  1.505150  0.000000  0.000000
  1.481250  0.043300  0.000000
  1.434180  0.201480  0.000000
  1.459870  0.085670  0.000000
  1.413590  0.326890  0.000000
  1.409170  0.410000  0.000000
  1.409940  0.244800  0.000000
  1.385300  0.366700  0.000000
  1.389560  0.283370  0.000000
  1.409090  0.158420  0.000000
  1.457350  0.000000  0.000000
  1.433650  0.043300  0.000000
  1.386550  0.201040  0.000000
  1.410050  0.086600  0.000000
  1.364750  0.326450  0.000000
  1.361420  0.410000  0.000000
  1.361460  0.243860  0.000000
  1.337670  0.366700  0.000000
  1.409950  0.000000  0.000000
  1.338650  0.284240  0.000000
  1.386460  0.043300  0.000000
  1.354150  0.119670  0.000000
  1.313920  0.410000  0.000000
  1.316290  0.328550  0.000000
  1.332940  0.164270  0.000000
  1.312360  0.242750  0.000000
  1.362970  0.000000  0.000000
  1.290300  0.366700  0.000000
  1.295390  0.283330  0.000000
  1.339680  0.043300  0.000000
  1.325730  0.078680  0.000000
  1.304410  0.123360  0.000000
  1.266670  0.410000  0.000000
  1.266740  0.323400  0.000000
  1.272670  0.239000  0.000000
  1.283210  0.168120  0.000000
  1.316400  0.000000  0.000000
  1.243180  0.366700  0.000000
  1.246180  0.281190  0.000000
  1.293330  0.043300  0.000000
  1.277840  0.081590  0.000000
  1.256410  0.126460  0.000000
  1.219690  0.410000  0.000000
  1.219750  0.323400  0.000000
  1.233390  0.170720  0.000000
  1.222230  0.237350  0.000000
  1.270260  0.000000  0.000000
  1.196320  0.366700  0.000000
  1.247400  0.043300  0.000000
  1.196390  0.280100  0.000000
  1.229040  0.084940  0.000000
  1.205650  0.129050  0.000000
  1.189490  0.207370  0.000000
  1.172960  0.410000  0.000000
  1.173020  0.323400  0.000000
  1.224540  0.000000  0.000000
  1.181510  0.158020  0.000000
  1.201900  0.043300  0.000000
  1.149720  0.366700  0.000000
  1.179360  0.086600  0.000000
  1.143430  0.291070  0.000000
  1.144660  0.247780  0.000000
  1.126490  0.410000  0.000000
  1.142770  0.189580  0.000000
  1.179250  0.000000  0.000000
  1.134770  0.140320  0.000000
  1.156830  0.043300  0.000000
  1.103400  0.366700  0.000000
  1.100860  0.316520  0.000000
  1.099450  0.268150  0.000000
  1.103580  0.220000  0.000000
  1.080300  0.410000  0.000000
  1.096330  0.172140  0.000000
  1.134410  0.000000  0.000000
  1.100760  0.105310  0.000000
  1.058360  0.324420  0.000000
  1.099400  0.056460  0.000000
  1.059350  0.282410  0.000000
  1.062400  0.233330  0.000000
  1.051490  0.361960  0.000000
  1.062400  0.206670  0.000000
  1.062400  0.140000  0.000000
  1.034380  0.410000  0.000000
  1.090000  0.000000  0.000000
  1.032380  0.305960  0.000000
  1.027830  0.333570  0.000000
  1.033760  0.246670  0.000000
  1.028220  0.281830  0.000000
  1.059860  0.078570  0.000000
  1.030770  0.220170  0.000000
  1.033760  0.193330  0.000000
  1.015410  0.368300  0.000000
  1.056850  0.040910  0.000000
  1.013850  0.293330  0.000000
  1.011380  0.313820  0.000000
  1.013850  0.280000  0.000000
  1.013850  0.266670  0.000000
  1.013850  0.240000  0.000000
  1.012290  0.252000  0.000000
  1.025480  0.152840  0.000000
  1.013850  0.226670  0.000000
  1.028350  0.124560  0.000000
  1.002130  0.333160  0.000000
  1.012290  0.214670  0.000000
  1.013850  0.200000  0.000000
  1.032380  0.094040  0.000000
  1.000000  0.300000  0.000000
  1.012290  0.188000  0.000000
  1.013850  0.173330  0.000000
[...]
POINT_DATA 2042
SCALARS pressure double
LOOKUP_TABLE default
  0.223734
  -0.511896
  -0.092934
  -0.497511
  -0.259705
  0.130475
  -0.358828
  -0.414335
  -0.755390
  -0.520124
  0.033153
  -0.141617
  -0.484579
  -0.325723
  -1.013612
  -0.060691
  -0.480314
  -0.185329
  -0.739119
  -0.371581
  -0.324745
  -0.103229
  -0.382746
  -0.164713
  -0.408803
  0.070765
  -0.275656
  -0.487578
  -0.409055
  -0.366179
  -0.276533
  -0.547331
  -0.622037
  -0.489384
  -0.420671
  -0.433382
  -0.368070
  -0.035400
  -0.441957
  -0.368962
  -0.431897
  -0.571220
  -0.490486
  -0.399947
  -0.477537
  -0.485086
  -0.833568
  -0.438299
  -0.073478
  -0.477205
  -0.700503
  -0.436273
  -0.559471
  -0.469657
  -0.595939
  -0.532918
  -0.448673
  -0.533236
  -0.648535
  -0.577185
  -0.482516
  -0.510430
  -0.320359
  -0.451170
  -0.558637
  -0.470075
  -0.577731
  -0.579991
  -0.566165
  -0.515643
  -0.672204
  -0.481135
  -0.528029
  -0.589488
  -0.508430
  -0.575962
  -0.546423
  -0.608987
  -0.595302
  -0.622755
  -0.558877
  -0.602881
  -0.521829
  -0.579416
  -0.669190
  -0.615868
  -0.622052
  -0.550887
  -0.625436
  -0.573581
  -0.649309
  -0.591366
  -0.678135
  -0.651718
  -0.564557
  -0.716236
  -0.693459
  -0.600078
  -0.673428
  -0.668463
  -0.619557
  -0.689561
  -0.559268
  -0.740869
  -0.698319
  -0.748336
  -0.655950
  -0.679194
  -0.663683
  -0.729333
  -0.710183
  -0.600666
  -0.740269
  -0.745240
  -0.726228
  -0.809727
  -0.692900
  -0.611192
  -0.653963
  -0.638529
  -0.729899
  -0.786476
  -0.789275
  -0.823931
  -0.888009
  -0.670327
  -0.805378
  -1.105731
  -0.792814
  -0.736426
  -0.834473
  -0.792368
  -0.898808
  -0.894309
  -0.334483
  -0.578764
  -0.817833
  -0.883728
  -1.154034
  -1.072423
  -0.971288
  -0.972120
  -0.817398
  -0.704384
  -0.918849
  -0.857383
  -0.963027
  -0.985332
  -1.050877
  -1.003850
  -1.086705
  -0.993827
  -0.957946
  -0.976879
  -1.026709
  -1.127842
  -1.014839
  -1.046474
  -1.017880
  -1.178740
  -1.042395
  -1.086359
  -1.041297
  -1.018503
  -1.033301
  -1.067197
  -1.049486
  -1.067360
  -1.063478
  -1.026238
  -1.007351
  -1.094157
  -1.081502
  -1.081387
  -1.076133
  -1.086116
  -1.094256
  -1.107793
  -1.065040
  -1.100966
  -1.092759
  -1.066623
  -1.104726
  -1.111865
  -1.110402
  -1.119487
  -1.129213
  -1.125329
  -1.092617
  -1.140349
  -1.103009
  -1.137495
  -1.138228
  -1.123563
  -1.131553
  -1.152515
  -1.165269
  -1.173072
  -1.164358
  -1.102061
  -1.132064
  -1.170302
  -1.172313
  -1.168239
  -1.144349
  -1.156333
  -1.189926
  -1.205572
  -1.216443
  -1.204540
  -1.125406
  -1.170486
  -1.188806
  -1.165938
  -1.207701
  -1.212683
  -1.224380
  -1.249322
  -1.262605
  -1.215045
  -1.166161
  -1.199726
  -1.241329
  -1.188568
  -1.253654
  -1.264074
  -1.270169
  -1.294834
  -1.177656
  -1.298309
  -1.221400
  -1.268579
  -1.271314
  -1.288759
  -1.291330
  -1.300653
  -1.251427
  -1.319821
  -1.354504
  -1.291161
  -1.258084
  -1.341445
  -1.342883
  -1.343402
  -1.356355
  -1.367842
  -1.254805
  -1.395778
  -1.408336
  -1.319047
  -1.278485
  -1.354732
  -1.376821
  -1.356779
  -1.418959
  -1.455054
  -1.249602
  -1.413363
  -1.347052
  -1.443248
  -1.281632
  -1.456925
  -1.507613
  -1.258666
  -1.442502
  -1.134018
  -1.447617
  -1.291962
  -1.399327
  -1.438973
  -1.495926
  -1.519175
  -1.333364
  -1.562135
  -1.031529
  -1.481246
  -1.500197
  -1.589854
  -1.509909
  -1.632039
  -1.665767
  -1.796970
  -1.655824
  -1.484174
  -1.530451
  -1.648065
  -1.731699
  -1.691000
  -1.698575
  -1.691563
  -1.695103
  -1.730886
  -1.591677
  -1.571615
  -1.837281
  -1.815013
  -1.749524
  -1.809488
  -1.709975
  -1.774889
  -1.787441
  -1.875096
  -2.103080
  -1.851386
  -1.895622
  -1.857506
  -1.853500
  -1.836377
  -1.843744
  -1.811059
  -1.838623
  -1.851400
  -1.824551
  -1.847699
  -1.844411
  -1.914270
  -1.923930
  -1.859696
  -1.859740
  -1.908597
  -1.904644
  -1.898031
  -1.863102
  -1.893138
  -2.099296
  -1.858698
  -1.933933
  -1.891760
  -2.029147
  -1.803939
  -1.856541
  -1.891227
  -1.866408
  -1.894311
  -1.871827
  -1.897739
  -1.900785
  -1.946862
  -1.902633
  -1.938114
  -1.905368
  -1.906024
  -1.938517
  -1.968801
  -1.963188
  -1.907441
  -1.963148
  -1.934572
  -1.955709
  -1.962156
  -1.910747
  -1.968819
  -1.944521
  -1.938310
  -1.939581
  -1.980208
  -1.928696
  -1.963419
  -1.979583
  -1.976568
  -1.995310
  -1.944170
  -1.957374
  -1.967311
  -1.992498
  -1.979339
  -2.035538
  -1.995946
  -1.955378
  -1.955146
  -1.999686
  -1.964763
  -1.996310
  -1.924023
  -1.981433
  -1.993389
  -1.991241
  -2.004299
  -1.945451
  -2.021583
  -2.019829
  -1.977614
  -2.027383
  -1.998328
  -2.026697
  -2.010839
  -1.970233
  -2.028661
  -2.022534
  -2.039386
  -1.785391
  -1.919048
  -2.049983
  -1.946811
  -2.006221
  -2.004925
  -2.022733
  -1.987880
  -2.036058
  -2.069563
  -1.952397
  -2.048917
  -2.057318
  -1.963312
  -2.068346
  -2.014676
  -2.085702
  -2.036330
  -2.049571
  -2.060225
  -1.991709
  -2.072934
  -2.066732
  -2.084364
  -2.095745
  -2.092598
  -1.922292
  -2.045866
  -2.065066
  -2.026834
  -2.079254
  -2.106345
  -2.091340
  -2.101879
  -1.983534
  -2.112083
  -1.678282
  -2.126275
  -2.077892
  -2.092753
  -2.060380
  -2.026521
  -2.117459
  -2.110054
  -2.129328
  -2.127484
  -2.137298
  -1.931355
  -2.090104
  -2.108843
  -2.202335
  -2.122582
  -2.064650
  -2.153201
  -2.135898
  -1.999609
  -2.146014
  -2.154125
  -1.994617
  -2.165445
  -2.122062
  -2.102562
  -2.139050
  -2.209461
  -2.150857
  -2.068051
  -2.160779
  -2.171575
  -2.083250
  -2.180586
  -1.983987
  -2.190170
  -2.135590
  -2.153338
  -2.167346
  -1.723664
  -2.113685
  -2.186924
  -2.200235
  -2.180261
  -2.083660
  -2.199647
  -2.211154
  -2.167241
  -2.182735
  -2.151015
  -2.194830
  -2.235055
  -2.130274
  -2.205524
  -2.279251
  -2.216201
  -2.225445
  -2.072647
  -2.245173
  -2.182238
  -2.199469
  -2.212364
  -2.222220
  -2.165921
  -2.231516
  -2.253075
  -2.126028
  -2.054750
  -2.240544
  -2.173910
  -2.257117
  -2.214030
  -2.214449
  -2.228247
  -2.196078
  -2.240325
  -2.264891
  -2.256992
  -2.250487
  -2.128673
  -2.134812
  -2.270403
  -2.279580
  -2.245312
  -2.231969
  -2.267008
  -2.258340
  -2.276840
  -2.212196
  -2.288162
  -2.231549
  -2.285200
  -2.294692
  -2.261879
  -2.274574
  -2.248998
  -2.285160
  -2.301263
  -2.295654
  -2.285462
  -2.354442
  -2.313160
  -2.234466
  -2.280284
  -2.325303
  -2.292967
  -2.304127
  -2.265146
  -2.312608
  -2.322361
  -2.266246
  -2.331990
  -2.330229
  -2.149477
  -2.345199
  -2.310810
  -2.298419
  -2.320872
  -2.331083
  -2.339626
  -2.346123
  -2.322495
  -2.360324
  -2.366096
  -2.360876
  -2.290180
  -2.330091
  -2.338559
  -2.352504
  -2.350207
  -2.325483
  -2.358445
  -2.385496
  -2.367803
  -2.336981
  -2.371112
  -2.375822
  -2.389624
  -2.353091
  -2.361136
  -2.359792
  -2.352874
  -2.367350
  -2.376984
  -2.384983
  -2.395637
  -2.400494
  -2.370116
  -2.341911
  -2.405609
  -2.406610
  -2.380058
  -2.385622
  -2.394400
  -2.378766
  -2.403329
  -2.586591
  -2.413481
  -2.390420
  -2.425310
  -2.411708
  -2.424274
  -2.408308
  -2.408104
  -2.413864
  -2.422255
  -2.430245
  -2.445401
  -2.441063
  -2.453170
  -2.453000
  -2.454316
  -2.428783
  -2.432796
  -2.439763
  -2.436157
  -2.448448
  -2.444720
  -2.458689
  -2.475188
  -2.477800
  -2.493297
  -2.471154
  -2.434376
  -2.453895
  -2.450222
  -2.458277
  -2.465806
  -2.512477
  -2.474834
  -2.549174
  -2.473201
  -2.486710
  -2.507146
  -2.500021
  -2.517652
  -2.478063
  -2.472668
  -2.484691
  -2.492735
  -2.521558
  -2.470261
  -2.503581
  -2.559344
  -2.516392
  -2.541007
  -2.484981
  -2.498672
  -2.503045
  -2.509945
  -2.518817
  -2.363682
  -2.576818
  -2.530664
  -2.546927
  -2.574755
  -2.523014
  -2.545471
  -2.527432
  -2.523922
  -2.520661
  -2.333103
  -2.578466
  -2.536591
  -2.570418
  -2.521897
  -2.547288
  -2.596125
  -2.561507
  -2.539367
  -2.546316
  -2.545311
  -2.553469
  -2.561584
  -2.472043
  -2.574531
  -2.533460
  -2.645296
  -2.594341
  -2.606933
  -2.567301
  -2.564036
  -2.571620
  -2.626812
  -2.577787
  -2.659613
  -2.553236
  -2.590353
  -2.652384
  -2.604301
  -2.621028
  -2.587037
  -2.590072
  -2.587502
  -2.596221
  -2.699860
  -2.452271
  -2.603385
  -2.616050
  -2.634290
  -2.575180
  -2.584597
  -2.653032
  -2.611913
  -2.610643
  -2.668579
  -2.614299
  -2.545539
  -2.618711
  -2.620539
  -2.631220
  -2.671028
  -2.645735
  -2.664994
  -2.688058
  -2.633576
  -2.632772
  -2.639790
  -2.637792
  -2.642655
  -2.641999
  -2.699801
  -2.657396
  -2.655966
  -2.677505
  -2.697717
  -2.727270
  -2.654313
  -2.655240
  -2.657190
  -2.658195
  -2.675647
  -2.665667
  -2.671329
  -2.802375
  -2.685098
  -2.746542
  -2.711213
  -2.737195
  -2.677580
  -2.674751
  -2.675698
  -2.682414
  -2.750256
  -2.681754
  -2.696016
  -2.719497
  -2.679094
  -2.744892
  -2.696351
  -2.698765
  -2.775347
  -2.695025
  -2.974778
  -2.682410
  -2.695594
  -2.703181
  -2.709581
  -2.722682
  -2.802200
  -2.755529
  -2.717125
  -2.784022
  -2.718405
  -2.715011
  -2.714107
  -2.682272
  -2.715511
  -2.732407
  -2.848456
  -2.756766
  -2.723442
  -2.718129
  -2.790022
  -2.828498
  -2.739664
  -2.734112
  -2.749388
  -2.729423
  -2.751395
  -2.925373
  -2.743458
  -2.756387
  -2.883825
  -2.798406
  -2.836005
  -2.765754
  -2.757983
  -2.750747
  -2.746190
  -2.935322
  -2.766496
  -2.793309
  -2.839796
  -2.804913
  -2.889132
  -2.786333
  -2.794206
  -2.774905
  -2.717943
  -2.760806
  -2.769470
  -2.801410
  -2.921180
  -2.789872
  -2.939279
  -2.838348
  -2.886931
  -2.812244
  -2.802265
  -2.787161
  -2.805471
  -2.769375
  -2.793783
  -2.789830
  -2.989108
  -2.829420
  -2.844616
  -2.886145
  -2.831443
  -2.841824
  -2.817165
  -2.791445
  -2.946876
  -2.790066
  -2.843134
  -3.038886
  -2.817218
  -2.992510
  -2.878265
  -2.858126
  -2.847718
  -2.827315
  -2.938630
  -2.786708
  -3.012986
  -2.815158
  -2.863299
  -2.863996
  -2.931896
  -2.988863
  -2.877390
  -2.882030
  -2.861776
  -2.825136
  -2.830388
  -2.798427
  -2.888457
  -2.848605
  -3.045814
  -2.989585
  -2.922473
  -3.004460
  -2.981273
  -2.901549
  -2.896621
  -2.870292
  -2.809472
  -2.834382
  -3.031860
  -3.045254
  -2.902905
  -2.889898
  -2.848303
  -2.983741
  -3.033378
  -2.927000
  -2.933157
  -2.913810
  -2.862160
  -2.928759
  -2.820078
  -3.082707
  -2.876034
  -2.971058
  -3.093965
  -2.903751
  -3.046441
  -2.950485
  -2.953328
  -2.924795
  -2.844180
  -3.098634
  -2.925143
  -2.860365
  -3.113589
  -2.945592
  -3.044062
  -3.100813
  -2.986765
  -2.975048
  -2.925866
  -2.969437
  -2.845842
  -3.248807
  -2.923315
  -3.030448
  -3.499379
  -3.148905
  -3.105230
  -3.019581
  -3.013900
  -2.991995
  -2.907959
  -3.155706
  -2.901444
  -3.007239
  -3.000354
  -3.117179
  -3.176643
  -2.992611
  -3.168410
  -3.058092
  -3.051539
  -3.055973
  -2.919573
  -3.035526
  -2.980976
  -3.223479
  -3.115506
  -3.203591
  -3.186633
  -2.938793
  -3.217264
  -3.095000
  -3.098203
  -3.000470
  -3.083121
  -2.983549
  -3.095644
  -3.119358
  -3.238506
  -3.215346
  -3.248022
  -3.136914
  -3.140394
  -3.128101
  -3.120133
  -3.134305
  -3.012065
  -3.082577
  -3.224799
  -3.280660
  -3.275227
  -3.291448
  -3.170126
  -3.182678
  -3.165290
  -3.191359
  -3.070273
  -3.249765
  -3.167202
  -3.294961
  -3.338371
  -3.337237
  -3.214177
  -3.236239
  -3.189124
  -3.269963
  -3.331464
  -3.260800
  -3.306621
  -3.401135
  -3.342029
  -3.392090
  -3.368602
  -3.278251
  -3.280425
  -3.238289
  -3.271286
  -3.303025
  -3.341347
  -3.462352
  -3.338563
  -3.220842
  -3.259932
  -3.414253
  -3.424838
  -3.167296
  -3.387577
  -3.571384
  -3.398355
  -3.289020
  -3.344231
  -3.257997
  -3.592505
  -3.406667
  -3.447967
  -3.525244
  -3.621219
  -3.215099
  -3.304124
  -3.645319
  -3.355560
  -3.447989
  -3.280166
  -3.187963
  -3.650870
  -3.425148
  -3.504461
  -3.593008
  -3.470423
  -3.361857
  -3.435340
  -3.313624
  -3.911979
  -3.877384
  -3.473247
  -3.361146
  -4.002185
  -3.527930
  -3.738993
  -3.920063
  -3.438855
  -3.545691
  -3.831311
  -3.656618
  -3.343685
  -3.591546
  -3.529735
  -3.533669
  -3.232224
  -4.207383
  -4.182337
  -3.435035
  -3.393659
  -3.524907
  -3.713321
  -4.146613
  -3.961860
  -4.198051
  -3.484625
  -4.128054
  -3.277426
  -3.534913
  -3.800888
  -3.593067
  -3.505024
  -3.688643
  -3.634434
  -4.223475
  -4.207607
  -3.902231
  -4.177963
  -3.395285
  -3.574220
  -4.166075
  -3.366699
  -4.100134
  -3.571157
  -4.039642
  -3.435614
  -3.587758
  -3.757504
  -4.041299
  -3.493812
  -3.967427
  -3.774271
  -3.552944
  -3.928847
  -3.621488
  -3.998243
  -3.368169
  -3.881829
  -3.557536
  -3.684658
  -3.685405
  -3.937547
  -3.445009
  -3.949161
  -3.561393
  -3.611859
  -3.439507
  -3.902218
  -3.934513
  -3.374779
  -3.753591
  -3.503513
  -3.627102
  -3.774945
  -3.827444
  -3.662587
  -3.475291
  -3.901466
  -3.907111
  -3.572190
  -3.558717
  -3.847954
  -3.882017
  -3.897502
  -3.891419
  -3.713306
  -3.704781
  -3.528744
  -3.641746
  -3.556450
  -3.611352
  -3.856928
  -3.843010
  -3.534343
  -3.765353
  -3.876464
  -3.548249
  -3.826247
  -3.759589
  -3.694001
  -3.655560
  -3.661983
  -3.828032
  -3.619024
  -3.826632
  -3.592841
  -3.882616
  -3.800949
  -3.735780
  -3.823630
  -3.875556
  -3.706894
  -3.533948
  -3.683509
  -3.634363
  -3.604749
  -3.805604
  -3.786201
  -3.878750
  -3.573606
  -3.748191
  -3.775303
  -3.715232
  -3.674108
  -3.542465
  -3.875505
  -3.647013
  -3.613615
  -3.672131
  -3.825742
  -3.777002
  -3.829651
  -3.749317
  -3.709023
  -3.544012
  -3.623678
  -3.761348
  -3.824652
  -3.568819
  -3.701964
  -3.650275
  -3.758890
  -3.788617
  -3.596776
  -3.535896
  -3.726038
  -3.762958
  -3.816608
  -3.610618
  -3.725129
  -3.683613
  -3.758545
  -3.669539
  -3.540967
  -3.632009
  -3.812546
  -3.683287
  -3.564338
  -3.742832
  -3.707469
  -3.604548
  -3.759636
  -3.799957
  -3.795205
  -3.710296
  -3.661893
  -3.668845
  -3.753286
  -3.783341
  -3.806466
  -3.617530
  -3.731677
  -3.726531
  -3.687340
  -3.747633
  -3.757760
  -3.819097
  -3.691174
  -3.652203
  -3.750742
  -3.748185
  -3.702258
  -3.806717
  -3.749775
  -3.707945
  -3.606026
  -3.687751
  -3.782698
  -3.753452
  -3.720860
  -3.676032
  -3.786628
  -3.621850
  -3.644772
  -3.764702
  -3.795187
  -3.726328
  -3.736244
  -3.695471
  -3.656942
  -3.670986
  -3.753344
  -3.817988
  -3.702609
  -3.577083
  -3.734092
  -3.756250
  -3.710725
  -3.797953
  -3.641697
  -3.726965
  -3.683269
  -3.735690
  -3.653293
  -3.734871
  -3.636669
  -3.672004
  -3.779589
  -3.730609
  -3.704152
  -3.734187
  -3.748512
  -3.699473
  -3.766060
  -3.641715
  -3.676414
  -3.692622
  -3.722761
  -3.760213
  -3.740555
  -3.741883
  -3.733511
  -3.712116
  -3.663955
  -3.737222
  -3.677898
  -3.721268
  -3.734555
  -3.734899
  -3.800194
  -3.693476
  -3.732357
  -3.678717
  -3.719010
  -3.726358
  -3.719082
  -3.735483
  -3.740937
  -3.706031
  -3.733705
  -3.692666
  -3.730069
  -3.714009
  -3.742163
  -3.759379
  -3.712351
  -3.683319
  -3.730829
  -3.740299
  -3.738387
  -3.701431
  -3.703438
  -3.711969
  -3.699820
  -3.732678
  -3.751957
  -3.715234
  -3.753194
  -3.736767
  -3.712305
  -3.703772
  -3.718868
  -3.722046
  -3.757089
  -3.699757
  -3.745297
  -3.736445
  -3.724477
  -3.752912
  -3.700260
  -3.757917
  -3.747269
  -3.718510
  -3.737838
  -3.709230
  -3.724316
  -3.754340
  -3.819551
  -3.768344
  -3.756003
  -3.698029
  -3.722163
  -3.775760
  -3.718773
  -3.751021
  -3.744983
  -3.714192
  -3.715130
  -3.747083
  -3.726068
  -3.758773
  -3.761608
  -3.727213
  -3.723134
  -3.744380
  -3.706391
  -3.718458
  -3.720330
  -3.754856
  -3.714778
  -3.779126
  -3.769226
  -3.724465
  -3.730008
  -3.718707
  -3.717903
  -3.723623
  -3.725877
  -3.721965
  -3.738638
  -3.732835
  -3.884666
  -3.714083
  -3.770028
  -3.804362
  -3.752395
  -3.756329
  -3.710734
  -3.798908
  -3.720874
  -3.718148
  -3.757104
  -3.759490
  -3.678318
  -3.750173
  -3.728110
  -3.821279
  -3.739717
  -3.791380
  -3.719729
  -3.687712
  -3.783434
  -3.721447
  -3.857692
  -3.762435
  -3.782366
  -3.685785
  -3.756381
  -3.767825
  -3.831590
  -3.717351
  -3.817476
  -3.765292
  -3.778552
  -3.707209
  -3.719302
  -3.790572
  -3.861920
  -3.734567
  -3.751290
  -3.758827
  -3.804556
  -3.776406
  -3.689244
  -3.759807
  -3.725907
  -3.707821
  -3.731661
  -3.789103
  -3.758684
  -3.868600
  -3.684418
  -3.684792
  -3.725878
  -3.832531
  -3.715144
  -3.783972
  -3.761216
  -3.724197
  -3.739181
  -3.681550
  -3.892132
  -3.718735
  -3.766335
  -3.813257
  -3.636759
  -3.718373
  -3.928829
  -3.717003
  -3.749028
  -3.719545
  -3.787841
  -3.753507
  -3.622384
  -3.876382
  -3.666190
  -3.712414
  -3.775399
  -3.729463
  -3.842065
  -3.613681
  -3.708191
  -3.730067
  -3.741685
  -3.762020
  -3.739195
  -3.921076
  -3.753701
  -3.818982
  -3.613670
  -4.074313
  -3.752189
  -3.683826
  -3.960226
  -3.725633
  -3.611094
  -3.720869
  -3.784293
  -3.920515
  -3.713232
  -3.627937
  -3.632274
  -3.865493
  -3.752479
  -3.688858
  -3.697030
  -3.638401
  -3.962730
  -3.643957
  -3.679912
  -3.747388
  -3.728805
  -3.765408
  -3.821415
  -3.621239
  -3.672400
  -3.909661
  -3.687807
  -3.723609
  -3.766411
  -3.582501
  -3.954268
  -3.665091
  -3.602074
  -3.721592
  -3.872601
  -3.638186
  -3.694936
  -3.662195
  -3.759242
  -3.573889
  -3.707654
  -3.641760
  -4.010522
  -3.568037
  -3.776894
  -3.817561
  -3.622314
  -3.665914
  -3.763316
  -3.938764
  -3.564631
  -3.764276
  -3.748143
  -3.595329
  -3.740246
  -4.002327
  -3.563404
  -3.699877
  -3.887092
  -3.559247
  -3.602404
  -3.773540
  -3.585455
  -3.663132
  -3.593633
  -3.534463
  -4.044789
  -3.564524
  -3.797869
  -3.816946
  -3.508394
  -3.788731
  -3.674049
  -3.547782
  -3.979848
  -3.754320
  -4.074356
  -3.725614
  -4.062906
  -3.555627
  -3.480227
  -3.748855
  -3.524800
  -3.911696
  -3.828503
  -3.450382
  -4.364053
  -3.629758
  -3.487839
  -3.508463
  -4.112257
  -3.631341
  -3.861534
  -3.453407
  -3.826181
  -3.507011
  -4.041020
  -3.827443
  -3.479860
  -3.452314
  -3.474779
  -3.729293
  -3.696323
  -3.528524
  -4.240250
  -4.160918
  -3.961823
  -3.426301
  -3.912464
  -3.439185
  -3.396883
  -3.827772
  -3.429867
  -3.445048
  -3.654678
  -4.285002
  -3.930108
  -3.868336
  -3.472585
  -4.113954
  -3.377919
  -3.372117
  -3.952288
  -3.927533
  -3.798743
  -3.352828
  -3.540925
  -3.706894
  -4.286511
  -3.413910
  -3.971271
  -4.047877
  -3.369973
  -4.260090
  -3.348968
  -3.919936
  -3.720986
  -3.583509
  -4.018235
  -3.955506
  -3.348627
  -3.419680
  -3.407986
  -4.426007
  -4.245379
  -3.384939
  -3.828072
  -4.039116
  -4.468664
  -3.364477
  -3.925193
  -3.648613
  -4.418636
  -3.362811
  -4.218546
  -4.074351
  -3.455580
  -3.642736
  -4.415674
  -4.087917
  -4.128782
  -4.069884
  -3.458811
  -4.530841
  -4.194077
  -4.149712
  -3.452166
  -3.488872
  -4.444925
  -3.600010
  -4.009391
  -3.650824
  -4.116597
  -4.142293
  -4.201862
  -3.604724
  -4.324386
  -4.548086
  -3.682325
  -4.525326
  -4.198257
  -3.676909
  -4.616004
  -3.901432
  -4.200547
  -4.103978
  -4.564636
  -4.087923
  -4.278902
  -4.652859
  -4.309685
  -3.873161
  -3.982322
  -4.771451
  -4.384603
  -3.979418
  -4.413473
  -4.769231
  -4.384684
  -4.260200
  -4.708089
  -5.018444
  -4.367533
  -4.237257
  -4.354890
  -4.544980
  -4.408043
  -4.357511
  -4.543186
  -5.319837
  -4.597478
  -4.470446
  -4.943222
  -4.769752
  -4.478740
  -5.273679
  -5.214577
  -4.640899
  -4.771301
  -4.971908
  -4.872058
  -4.619122
  -4.779731
  -4.878940
  -5.242078
  -5.709379
  -4.537053
  -5.139037
  -5.271778
  -5.086781
  -5.334361
  -4.896228
  -6.140871
  -4.711434
  -4.761597
  -5.182541
  -5.178042
  -5.588255
  -5.591049
  -4.578455
  -5.789924
  -5.288817
  -4.897537
  -6.084088
  -5.446365
  -5.664562
  -4.464173
  -5.954904
  -4.732184
  -5.078592
  -6.364649
  -5.532021
  -5.829930
  -5.725165
  -6.545849
  -5.809474
  -4.939105
  -5.357645