# vtk DataFile Version 2.0
FSI_Simulation
ASCII

DATASET UNSTRUCTURED_GRID
POINTS 2042 double
  2.500000  0.410000  0.000000
  2.450000  0.410000  0.000000
  2.500000  0.358750  0.000000
  2.455000  0.345150  0.000000
  2.400000  0.410000  0.000000
  2.500000  0.307500  0.000000
  2.409170  0.352960  0.000000
  2.425000  0.303110  0.000000
  2.350000  0.410000  0.000000
  2.359860  0.354270  0.000000
  2.500000  0.256250  0.000000
  2.450000  0.259810  0.000000
  2.375000  0.303110  0.000000
  2.400000  0.259810  0.000000
  2.300000  0.410000  0.000000
  2.500000  0.205000  0.000000
  2.325000  0.303110  0.000000
  2.425000  0.216510  0.000000
  2.300000  0.346410  0.000000
  2.350000  0.259810  0.000000
  2.375000  0.216510  0.000000
  2.450000  0.173210  0.000000
  2.275000  0.303110  0.000000
  2.250000  0.410000  0.000000
  2.300000  0.259810  0.000000
  2.500000  0.153750  0.000000
  2.400000  0.173210  0.000000
  2.250000  0.346410  0.000000
  2.325000  0.216510  0.000000
  2.350000  0.173210  0.000000
  2.429170  0.133880  0.000000
  2.250000  0.259810  0.000000
  2.225000  0.303110  0.000000
  2.275000  0.216510  0.000000
  2.200000  0.410000  0.000000
  2.197270  0.363510  0.000000
  2.375000  0.129900  0.000000
  2.500000  0.102500  0.000000
  2.300000  0.173210  0.000000
  2.450000  0.086600  0.000000
  2.325000  0.129900  0.000000
  2.200000  0.259810  0.000000
  2.225000  0.216510  0.000000
  2.400000  0.086600  0.000000
  2.250000  0.173210  0.000000
  2.170490  0.306770  0.000000
  2.150000  0.410000  0.000000
  2.350000  0.086600  0.000000
  2.500000  0.051250  0.000000
  2.275000  0.129900  0.000000
  2.135420  0.358250  0.000000
  2.429170  0.044630  0.000000
  2.175000  0.216510  0.000000
  2.300000  0.086600  0.000000
  2.150000  0.259810  0.000000
  2.200000  0.173210  0.000000
  2.375000  0.043300  0.000000
  2.225000  0.129900  0.000000
  2.112500  0.313250  0.000000
  2.100000  0.410000  0.000000
  2.325000  0.043300  0.000000
  2.250000  0.086600  0.000000
  2.500000  0.000000  0.000000
  2.450000  0.000000  0.000000
  2.125000  0.216510  0.000000
  2.400000  0.000000  0.000000
  2.150000  0.173210  0.000000
  2.075000  0.366700  0.000000
  2.175000  0.129900  0.000000
  2.275000  0.043300  0.000000
  2.087500  0.269950  0.000000
  2.350000  0.000000  0.000000
  2.200000  0.086600  0.000000
  2.050000  0.410000  0.000000
  2.300000  0.000000  0.000000
  2.050000  0.323400  0.000000
  2.225000  0.043300  0.000000
  2.100000  0.173210  0.000000
  2.125000  0.129900  0.000000
  2.062500  0.226650  0.000000
  2.150000  0.086600  0.000000
  2.025000  0.366700  0.000000
  2.250000  0.000000  0.000000
  2.175000  0.043300  0.000000
  2.025000  0.280100  0.000000
  2.000000  0.410000  0.000000
  2.000000  0.323400  0.000000
  2.200000  0.000000  0.000000
  2.070830  0.133290  0.000000
  2.100000  0.086600  0.000000
  2.037500  0.183350  0.000000
  2.125000  0.043300  0.000000
  1.975000  0.366700  0.000000
  2.000000  0.236790  0.000000
  2.150000  0.000000  0.000000
  1.975000  0.280100  0.000000
  1.950000  0.410000  0.000000
  2.050000  0.086600  0.000000
  1.950000  0.323400  0.000000
  2.012500  0.140050  0.000000
  2.075000  0.043300  0.000000
  1.975000  0.193490  0.000000
  2.100000  0.000000  0.000000
  1.925000  0.366700  0.000000
  1.950000  0.236790  0.000000
  1.925000  0.280100  0.000000
  2.000000  0.086600  0.000000
  1.900000  0.410000  0.000000
  2.025000  0.043300  0.000000
  1.900000  0.323400  0.000000
  1.950000  0.150190  0.000000
  2.050000  0.000000  0.000000
  1.925000  0.193490  0.000000
  1.900000  0.236790  0.000000
  1.875000  0.366700  0.000000
  1.875000  0.280100  0.000000
  1.975000  0.043300  0.000000
  1.937500  0.096750  0.000000
  2.000000  0.000000  0.000000
  1.850000  0.410000  0.000000
  1.902380  0.145780  0.000000
  1.850000  0.323400  0.000000
  1.875000  0.193490  0.000000
  1.850000  0.236790  0.000000
  1.820830  0.365370  0.000000
  1.925000  0.043300  0.000000
  1.950000  0.000000  0.000000
  1.800000  0.410000  0.000000
  1.850000  0.150190  0.000000
  1.877180  0.088810  0.000000
  1.810710  0.280600  0.000000
  1.800000  0.323400  0.000000
  1.820830  0.195410  0.000000
  1.800000  0.236790  0.000000
  1.900000  0.000000  0.000000
  1.875360  0.035430  0.000000
  1.825000  0.106890  0.000000
  1.800000  0.150190  0.000000
  1.750000  0.410000  0.000000
  1.750000  0.358750  0.000000
  1.750000  0.307500  0.000000
  1.750000  0.256250  0.000000
  1.825000  0.043300  0.000000
  1.850000  0.000000  0.000000
  1.750000  0.205000  0.000000
  1.793300  0.076870  0.000000
  1.750000  0.153750  0.000000
  1.700640  0.410000  0.000000
  1.704300  0.327190  0.000000
  1.750000  0.102500  0.000000
  1.800000  0.000000  0.000000
  1.706240  0.242410  0.000000
  1.676060  0.366700  0.000000
  1.679550  0.284150  0.000000
  1.704500  0.168810  0.000000
  1.750000  0.051250  0.000000
  1.682040  0.198780  0.000000
  1.655740  0.327710  0.000000
  1.651490  0.410000  0.000000
  1.750000  0.000000  0.000000
  1.656690  0.241750  0.000000
  1.703750  0.082910  0.000000
  1.678980  0.125940  0.000000
  1.627030  0.366700  0.000000
  1.631170  0.284620  0.000000
  1.654610  0.169080  0.000000
  1.632070  0.198270  0.000000
  1.607330  0.328120  0.000000
  1.602560  0.410000  0.000000
  1.700280  0.000000  0.000000
  1.675600  0.043300  0.000000
  1.655160  0.082380  0.000000
  1.606810  0.241470  0.000000
  1.630810  0.125620  0.000000
  1.578220  0.366700  0.000000
  1.582990  0.284920  0.000000
  1.604730  0.168150  0.000000
  1.578920  0.210800  0.000000
  1.650920  0.000000  0.000000
  1.559000  0.328320  0.000000
  1.553870  0.410000  0.000000
  1.626430  0.043300  0.000000
  1.606660  0.082260  0.000000
  1.556930  0.242380  0.000000
  1.582820  0.125810  0.000000
  1.529630  0.366700  0.000000
  1.534940  0.284960  0.000000
  1.555320  0.166880  0.000000
  1.601940  0.000000  0.000000
  1.530950  0.199810  0.000000
  1.577650  0.043300  0.000000
  1.510670  0.328200  0.000000
  1.505400  0.410000  0.000000
  1.558080  0.082770  0.000000
  1.534730  0.126670  0.000000
  1.507460  0.243800  0.000000
  1.481280  0.366700  0.000000
  1.486910  0.284640  0.000000
  1.506480  0.166500  0.000000
  1.553350  0.000000  0.000000
  1.529250  0.043300  0.000000
  1.482130  0.200990  0.000000
  1.462240  0.327690  0.000000
  1.457160  0.410000  0.000000
  1.509220  0.083990  0.000000
  1.486020  0.128110  0.000000
  1.458500  0.244760  0.000000
  1.433170  0.366700  0.000000
  1.438620  0.283990  0.000000
  1.458930  0.158770  0.000000
  1.505150  0.000000  0.000000
  1.481250  0.043300  0.000000
  1.434180  0.201480  0.000000
  1.459870  0.085670  0.000000
  1.413590  0.326890  0.000000
  1.409170  0.410000  0.000000
  1.409940  0.244800  0.000000
  1.385300  0.366700  0.000000
  1.389560  0.283370  0.000000
  1.409090  0.158420  0.000000
  1.457350  0.000000  0.000000
  1.433650  0.043300  0.000000
  1.386550  0.201040  0.000000
  1.410050  0.086600  0.000000
  1.364750  0.326450  0.000000
  1.361420  0.410000  0.000000
  1.361460  0.243860  0.000000
  1.337670  0.366700  0.000000
  1.409950  0.000000  0.000000
  1.338650  0.284240  0.000000
  1.386460  0.043300  0.000000
  1.354150  0.119670  0.000000
  1.313920  0.410000  0.000000
  1.316290  0.328550  0.000000
  1.332940  0.164270  0.000000
  1.312360  0.242750  0.000000
  1.362970  0.000000  0.000000
  1.290300  0.366700  0.000000
  1.295390  0.283330  0.000000
  1.339680  0.043300  0.000000
  1.325730  0.078680  0.000000
  1.304410  0.123360  0.000000
  1.266670  0.410000  0.000000
  1.266740  0.323400  0.000000
  1.272670  0.239000  0.000000
  1.283210  0.168120  0.000000
  1.316400  0.000000  0.000000
  1.243180  0.366700  0.000000
  1.246180  0.281190  0.000000
  1.293330  0.043300  0.000000
  1.277840  0.081590  0.000000
  1.256410  0.126460  0.000000
  1.219690  0.410000  0.000000
  1.219750  0.323400  0.000000
  1.233390  0.170720  0.000000
  1.222230  0.237350  0.000000
  1.270260  0.000000  0.000000
  1.196320  0.366700  0.000000
  1.247400  0.043300  0.000000
  1.196390  0.280100  0.000000
  1.229040  0.084940  0.000000
  1.205650  0.129050  0.000000
  1.189490  0.207370  0.000000
  1.172960  0.410000  0.000000
  1.173020  0.323400  0.000000
  1.224540  0.000000  0.000000
  1.181510  0.158020  0.000000
  1.201900  0.043300  0.000000
  1.149720  0.366700  0.000000
  1.179360  0.086600  0.000000
  1.143430  0.291070  0.000000
  1.144660  0.247780  0.000000
  1.126490  0.410000  0.000000
  1.142770  0.189580  0.000000
  1.179250  0.000000  0.000000
  1.134770  0.140320  0.000000
  1.156830  0.043300  0.000000
  1.103400  0.366700  0.000000
  1.100860  0.316520  0.000000
  1.099450  0.268150  0.000000
  1.103580  0.220000  0.000000
  1.080300  0.410000  0.000000
  1.096330  0.172140  0.000000
  1.134410  0.000000  0.000000
  1.100760  0.105310  0.000000
  1.058360  0.324420  0.000000
  1.099400  0.056460  0.000000
  1.059350  0.282410  0.000000
  1.062400  0.233330  0.000000
  1.051490  0.361960  0.000000
  1.062400  0.206670  0.000000
  1.062400  0.140000  0.000000
  1.034380  0.410000  0.000000
  1.090000  0.000000  0.000000
  1.032380  0.305960  0.000000
  1.027830  0.333570  0.000000
  1.033760  0.246670  0.000000
  1.028220  0.281830  0.000000
  1.059860  0.078570  0.000000
  1.030770  0.220170  0.000000
  1.033760  0.193330  0.000000
  1.015410  0.368300  0.000000
  1.056850  0.040910  0.000000
  1.013850  0.293330  0.000000
  1.011380  0.313820  0.000000
  1.013850  0.280000  0.000000
  1.013850  0.266670  0.000000
  1.013850  0.240000  0.000000
  1.012290  0.252000  0.000000
  1.025480  0.152840  0.000000
  1.013850  0.226670  0.000000
  1.028350  0.124560  0.000000
  1.002130  0.333160  0.000000
  1.012290  0.214670  0.000000
  1.013850  0.200000  0.000000
  1.032380  0.094040  0.000000
  1.000000  0.300000  0.000000
  1.012290  0.188000  0.000000
  1.013850  0.173330  0.000000
[...]
POINT_DATA 2042
SCALARS pressure double
LOOKUP_TABLE default
  -2.152059
  -15.453215
  -0.329942
  -10.249694
  -20.645017
  0.351088
  -17.004506
  -12.018759
  -26.682345
  -24.192823
  -0.057617
  -7.670529
  -20.638418
  -16.279870
  -31.465945
  0.037854
  -27.014417
  -12.032891
  -31.065127
  -23.718204
  -20.020974
  -8.023102
  -34.049789
  -34.551403
  -30.658211
  0.303437
  -16.345113
  -36.118220
  -27.251398
  -23.813714
  -12.138914
  -38.077365
  -41.469338
  -34.568278
  -44.756719
  -45.444131
  -20.271870
  -0.047977
  -31.051741
  -10.200217
  -27.703497
  -45.326580
  -41.641906
  -17.485134
  -38.264878
  -50.544469
  -55.589153
  -24.689167
  -0.274678
  -34.914714
  -56.935553
  -16.375020
  -49.038624
  -31.723909
  -52.976585
  -45.346976
  -22.401067
  -41.996637
  -58.502316
  -60.656804
  -28.652574
  -38.672049
  -4.567644
  -15.366485
  -56.020384
  -20.475944
  -52.600726
  -63.437389
  -49.035185
  -35.496909
  -61.570120
  -25.832736
  -45.530750
  -66.437376
  -32.305388
  -66.883151
  -42.324334
  -59.512216
  -55.878822
  -64.994049
  -52.528891
  -69.951247
  -39.090679
  -49.097390
  -70.187924
  -73.402253
  -73.855758
  -45.740260
  -63.533599
  -59.391265
  -68.163992
  -55.840561
  -77.195614
  -73.750259
  -52.463994
  -77.393609
  -80.938491
  -65.910121
  -80.779753
  -71.701109
  -62.738652
  -77.161164
  -59.125368
  -84.690013
  -80.716236
  -84.489107
  -73.104449
  -88.159226
  -69.750174
  -87.999713
  -80.387194
  -66.275967
  -84.460440
  -88.020908
  -91.293935
  -91.387213
  -75.539840
  -81.634807
  -72.911850
  -93.910696
  -87.722555
  -94.497030
  -91.845799
  -95.085185
  -97.867328
  -82.019004
  -77.945154
  -101.096735
  -95.315677
  -89.262741
  -100.589446
  -101.264913
  -100.006666
  -103.211770
  -85.459999
  -90.095910
  -98.292048
  -103.092329
  -110.422801
  -110.652357
  -110.446101
  -111.029766
  -97.841262
  -95.252097
  -110.720447
  -103.503984
  -110.464368
  -119.379636
  -118.578120
  -111.103599
  -102.404604
  -116.935109
  -123.083181
  -120.919525
  -117.722080
  -111.672358
  -120.817759
  -125.257917
  -126.043615
  -111.633120
  -124.426166
  -119.758562
  -121.924676
  -129.151012
  -128.517736
  -125.291554
  -128.397914
  -131.980752
  -132.528292
  -120.731253
  -124.322333
  -126.250794
  -131.822047
  -129.453954
  -135.993171
  -135.261840
  -132.461973
  -136.060359
  -127.273087
  -138.824683
  -139.455958
  -130.192686
  -132.753829
  -139.237164
  -135.745295
  -143.021757
  -142.308140
  -139.541250
  -133.424849
  -143.015418
  -136.634981
  -145.708675
  -146.523653
  -139.381287
  -142.499428
  -146.202516
  -149.891366
  -149.134135
  -146.455295
  -139.810257
  -143.249467
  -149.830274
  -152.634001
  -153.267058
  -146.012227
  -149.615295
  -153.245770
  -156.669167
  -156.020392
  -153.373914
  -146.639603
  -150.145230
  -156.391998
  -153.239341
  -159.466816
  -160.040522
  -159.969208
  -163.527103
  -162.965950
  -159.694739
  -153.528558
  -156.396029
  -163.443956
  -159.369899
  -166.542017
  -167.026118
  -167.260150
  -170.298395
  -159.517760
  -170.270745
  -162.985204
  -167.776525
  -173.482264
  -173.273338
  -171.252905
  -173.968751
  -166.465908
  -176.902573
  -176.669925
  -169.950165
  -171.938415
  -175.381552
  -180.179823
  -180.384350
  -180.079389
  -178.432049
  -173.155324
  -183.690128
  -183.493830
  -176.311372
  -178.464966
  -181.892633
  -186.597279
  -187.324082
  -185.704202
  -187.470776
  -179.403645
  -189.679498
  -182.343963
  -191.018514
  -185.268873
  -189.004828
  -192.636977
  -192.136610
  -194.327843
  -184.645126
  -193.018150
  -188.396130
  -196.534212
  -192.207681
  -199.193388
  -198.804527
  -200.483736
  -199.346301
  -191.117999
  -200.706105
  -194.720697
  -204.405541
  -204.697960
  -206.223352
  -205.695024
  -208.095526
  -206.464962
  -197.474474
  -204.623919
  -212.333710
  -203.448333
  -212.089554
  -212.492565
  -212.336283
  -212.145728
  -211.466856
  -213.444455
  -201.142335
  -218.110228
  -218.500730
  -216.717484
  -218.491115
  -211.185762
  -217.625569
  -217.196574
  -220.325698
  -211.692627
  -221.170684
  -221.596328
  -221.018765
  -220.870710
  -220.921501
  -221.132864
  -218.641948
  -220.954623
  -218.342758
  -223.917825
  -221.212269
  -220.734122
  -217.102012
  -223.821116
  -220.945031
  -220.655978
  -223.555108
  -223.502314
  -223.465527
  -221.082544
  -223.456223
  -218.442605
  -220.737579
  -225.152204
  -223.427434
  -211.978652
  -223.819335
  -220.497378
  -223.410977
  -225.182821
  -223.368911
  -220.536215
  -223.355046
  -220.596879
  -226.010472
  -223.359434
  -225.710265
  -223.333789
  -223.294485
  -225.845736
  -220.688063
  -226.988521
  -223.203180
  -227.074399
  -225.569135
  -226.683387
  -227.124401
  -223.080955
  -227.182561
  -225.989579
  -223.052546
  -225.469941
  -228.161425
  -222.542051
  -227.134680
  -228.072956
  -227.852270
  -228.670822
  -225.346194
  -226.317324
  -227.110577
  -229.360755
  -227.921525
  -230.357291
  -228.968002
  -224.849717
  -225.612315
  -229.548992
  -226.682919
  -228.905518
  -223.240916
  -227.790469
  -228.608836
  -230.440624
  -229.303111
  -224.926635
  -230.471758
  -230.199886
  -227.420245
  -231.072370
  -228.692443
  -231.801425
  -229.498121
  -226.756902
  -230.642377
  -230.235646
  -231.288173
  -223.908930
  -225.220861
  -231.926765
  -222.018449
  -229.211195
  -233.646592
  -230.124088
  -228.480579
  -230.931477
  -233.136234
  -235.388678
  -231.693450
  -232.207306
  -227.295027
  -232.839296
  -229.785753
  -233.644922
  -230.926043
  -231.638635
  -234.562598
  -229.216075
  -233.004609
  -232.620588
  -233.658419
  -234.268874
  -235.734073
  -228.106448
  -231.562572
  -232.506914
  -230.935225
  -233.280283
  -235.377546
  -233.963655
  -234.584765
  -230.000120
  -235.192005
  -226.005322
  -235.925140
  -233.298828
  -234.017643
  -232.537913
  -231.707408
  -235.395868
  -234.958934
  -236.657951
  -235.976212
  -236.604320
  -230.463140
  -234.129213
  -234.941067
  -236.985752
  -235.631917
  -233.415827
  -237.678411
  -236.358224
  -232.282052
  -236.945059
  -237.413084
  -230.742008
  -238.121774
  -235.763178
  -235.028059
  -236.539999
  -238.528005
  -237.151237
  -234.209377
  -237.710381
  -238.348609
  -238.516194
  -238.935947
  -233.413486
  -239.674430
  -236.633306
  -237.361023
  -238.041041
  -227.458498
  -235.974091
  -239.135841
  -239.958391
  -238.736668
  -235.404582
  -239.878396
  -240.522310
  -238.197772
  -238.878607
  -237.536799
  -239.502555
  -241.429135
  -236.898184
  -240.092669
  -242.618496
  -240.707083
  -241.317041
  -237.192279
  -242.089149
  -239.112079
  -239.808928
  -240.439806
  -240.966956
  -238.521069
  -241.502025
  -242.609701
  -238.038585
  -235.949934
  -242.046059
  -239.039680
  -242.903242
  -243.308407
  -240.646249
  -241.287582
  -240.045239
  -241.919901
  -243.757048
  -242.853913
  -242.485573
  -238.579178
  -239.284784
  -243.660476
  -244.061326
  -242.210404
  -241.607878
  -243.338917
  -242.866383
  -243.898283
  -241.084150
  -244.826667
  -240.725665
  -244.407804
  -245.140567
  -243.090704
  -243.711534
  -242.548716
  -244.288640
  -245.228355
  -244.880269
  -246.100781
  -246.136174
  -245.993532
  -241.920809
  -243.976553
  -246.714657
  -244.663722
  -245.268291
  -243.527610
  -245.752614
  -246.302973
  -243.105926
  -247.343659
  -246.762254
  -239.222380
  -247.551865
  -245.546190
  -244.965411
  -246.118971
  -246.709389
  -247.198740
  -247.576151
  -248.204705
  -248.581290
  -248.624789
  -248.379824
  -244.615256
  -246.422512
  -246.999595
  -248.877218
  -247.685466
  -246.060502
  -248.172546
  -248.634750
  -248.698628
  -245.846349
  -249.536515
  -249.144862
  -249.932743
  -247.409967
  -249.905854
  -248.007190
  -246.354537
  -248.535848
  -249.127556
  -249.598579
  -250.170269
  -250.795078
  -247.184811
  -246.901271
  -250.974080
  -250.753244
  -248.859106
  -249.426691
  -250.008226
  -248.599828
  -250.547746
  -253.499314
  -251.107216
  -248.566139
  -251.790643
  -251.926077
  -251.673037
  -249.944696
  -250.455702
  -250.967835
  -251.525513
  -252.002316
  -253.062885
  -252.554945
  -253.076426
  -253.409990
  -250.281422
  -251.299379
  -251.848426
  -252.404961
  -251.118977
  -252.958907
  -251.024578
  -253.501780
  -254.290290
  -254.237149
  -254.781879
  -254.080549
  -249.845690
  -252.808937
  -252.346143
  -253.303389
  -253.847052
  -256.701624
  -254.394745
  -256.474173
  -251.320124
  -254.961763
  -252.031128
  -255.483711
  -255.987963
  -254.268247
  -253.783817
  -254.810512
  -255.348306
  -256.502254
  -253.301946
  -255.906574
  -257.284768
  -256.476683
  -257.193069
  -254.181523
  -255.220928
  -255.706399
  -256.231248
  -256.790429
  -257.235308
  -258.720045
  -257.333570
  -257.892918
  -258.427020
  -254.890260
  -258.575203
  -257.122007
  -256.680662
  -256.219579
  -253.123672
  -259.072423
  -257.753210
  -258.933205
  -255.946681
  -258.289154
  -259.563364
  -258.894401
  -257.073997
  -258.043845
  -257.623185
  -258.616251
  -259.163753
  -255.982264
  -259.734780
  -256.901221
  -260.998424
  -260.444902
  -260.809760
  -258.994376
  -258.518414
  -259.550074
  -261.452974
  -260.061087
  -261.108871
  -258.170019
  -260.682228
  -261.952149
  -261.275759
  -261.699702
  -259.886708
  -260.434655
  -259.584729
  -261.006827
  -262.748250
  -256.899188
  -261.544373
  -262.070467
  -262.694482
  -259.544851
  -261.563007
  -263.166306
  -261.376283
  -260.929397
  -263.742650
  -261.923443
  -260.503504
  -262.425897
  -260.766625
  -263.025910
  -264.270509
  -263.657315
  -264.144819
  -264.658967
  -262.270041
  -262.781604
  -262.018577
  -263.376920
  -263.882471
  -261.900464
  -265.616926
  -264.464048
  -262.096476
  -265.091280
  -265.603080
  -266.165979
  -264.186280
  -263.731171
  -263.283283
  -264.796535
  -266.391491
  -263.103140
  -265.409720
  -265.974878
  -265.965104
  -267.027766
  -266.551260
  -267.103062
  -264.567840
  -265.137792
  -265.604993
  -264.319317
  -267.757157
  -266.325288
  -266.815296
  -267.488915
  -264.179458
  -267.982145
  -265.971198
  -265.517991
  -268.562103
  -266.543523
  -270.269210
  -264.480871
  -267.146323
  -265.320254
  -267.781669
  -268.328822
  -269.319779
  -268.944041
  -266.153617
  -269.507369
  -266.888010
  -267.392106
  -267.964457
  -265.036596
  -268.592776
  -269.142720
  -270.699568
  -269.750300
  -266.714483
  -265.274975
  -270.349522
  -270.925648
  -268.310882
  -268.828231
  -268.000279
  -269.480538
  -267.780652
  -272.828453
  -270.135204
  -270.567871
  -271.968798
  -271.316507
  -271.923001
  -269.234381
  -269.734507
  -270.309145
  -270.943209
  -273.347657
  -271.510543
  -272.115825
  -272.748507
  -269.508404
  -273.393635
  -270.636022
  -270.150468
  -271.169011
  -267.213736
  -271.815374
  -272.283063
  -270.045039
  -274.806321
  -273.054804
  -274.332729
  -273.576011
  -274.273181
  -271.513522
  -272.065376
  -272.620960
  -270.254189
  -273.259721
  -273.851838
  -274.993358
  -275.487701
  -274.477117
  -271.230429
  -275.115181
  -272.940972
  -272.424317
  -273.506689
  -274.136383
  -276.020500
  -274.647638
  -272.230627
  -276.104357
  -275.264102
  -276.723408
  -275.904861
  -273.873287
  -274.386787
  -274.960989
  -276.850006
  -275.512120
  -277.229993
  -276.176601
  -276.824669
  -273.455184
  -277.483753
  -277.981347
  -275.258119
  -274.686370
  -275.836860
  -276.426536
  -271.505099
  -276.997093
  -274.619596
  -277.617739
  -279.994351
  -278.630608
  -278.278485
  -278.970066
  -279.046132
  -276.084910
  -276.705186
  -277.297574
  -277.862779
  -278.508110
  -279.928305
  -280.338162
  -279.157164
  -275.580985
  -273.929751
  -279.830772
  -280.365950
  -277.548172
  -276.867142
  -278.164042
  -278.766848
  -276.716595
  -279.330249
  -282.637407
  -279.949784
  -280.563454
  -281.703890
  -276.334483
  -281.428259
  -278.365663
  -279.019318
  -279.632479
  -280.154576
  -282.176446
  -277.206434
  -280.850205
  -283.318416
  -281.503510
  -282.161543
  -282.739079
  -279.863878
  -280.495045
  -281.107128
  -278.955416
  -281.654109
  -285.412364
  -282.306072
  -282.933373
  -287.733219
  -283.944931
  -283.427207
  -281.348430
  -280.651628
  -281.965379
  -282.501477
  -284.323619
  -283.202054
  -283.829017
  -280.121230
  -284.383930
  -285.043187
  -283.163832
  -285.021331
  -282.212454
  -282.825950
  -281.620195
  -283.985573
  -280.561164
  -284.636199
  -285.255165
  -285.307555
  -286.070448
  -285.787073
  -277.393776
  -286.339039
  -283.103465
  -283.678400
  -284.762796
  -284.306336
  -285.512353
  -286.181689
  -283.352209
  -286.806048
  -286.833922
  -287.319274
  -284.530394
  -285.160455
  -283.754307
  -285.794118
  -284.017081
  -286.295588
  -287.009274
  -287.660331
  -288.103972
  -288.327009
  -288.785010
  -285.406476
  -285.997999
  -287.120570
  -286.645959
  -287.810609
  -288.480131
  -285.471368
  -289.466017
  -289.196316
  -289.663127
  -286.845373
  -287.484103
  -286.212648
  -288.158281
  -290.280876
  -290.444584
  -289.321419
  -290.113843
  -290.940946
  -290.571651
  -290.922761
  -289.434936
  -291.103838
  -287.642202
  -288.306839
  -288.996398
  -290.106994
  -291.295262
  -292.087957
  -287.528496
  -293.741723
  -290.238189
  -291.966788
  -285.944588
  -290.198294
  -291.662773
  -292.488556
  -289.111253
  -289.813076
  -288.450907
  -291.727547
  -293.332622
  -293.307604
  -293.170807
  -293.057452
  -287.761316
  -289.896948
  -292.407329
  -290.594609
  -291.361115
  -289.123013
  -285.942519
  -292.468499
  -295.114789
  -294.098518
  -292.469178
  -294.852934
  -291.365344
  -292.133438
  -290.681971
  -294.683523
  -295.020570
  -295.984999
  -291.777767
  -295.431417
  -295.646458
  -295.422007
  -295.220260
  -292.886484
  -293.683366
  -294.847003
  -295.955773
  -292.023736
  -296.432665
  -296.923765
  -298.131925
  -289.599820
  -297.878953
  -297.637431
  -293.707450
  -293.366440
  -294.402988
  -295.344302
  -298.065390
  -297.371507
  -298.080376
  -299.169236
  -297.549761
  -298.071337
  -298.321926
  -297.678953
  -297.905151
  -295.167421
  -298.146730
  -295.952842
  -298.911423
  -298.987796
  -297.163664
  -298.882049
  -294.333344
  -299.572945
  -298.794338
  -293.876265
  -298.889340
  -299.076114
  -298.617417
  -295.375370
  -296.622300
  -297.479044
  -299.327800
  -296.368485
  -299.186453
  -299.739885
  -300.354483
  -299.909429
  -300.109015
  -299.832396
  -300.052846
  -298.938764
  -297.367401
  -300.526038
  -298.287626
  -299.645617
  -296.662108
  -300.299304
  -301.449051
  -301.201112
  -297.028243
  -300.063991
  -301.053734
  -294.482144
  -301.299005
  -297.905939
  -298.786924
  -299.608485
  -301.510589
  -301.938301
  -302.249531
  -300.741421
  -301.519125
  -302.619365
  -298.958587
  -300.842710
  -301.239844
  -302.347745
  -302.327974
  -302.697240
  -300.410346
  -299.554567
  -303.334455
  -303.631367
  -300.098138
  -301.769976
  -302.859994
  -300.006625
  -303.442955
  -303.391746
  -300.035345
  -302.264366
  -301.640769
  -304.097119
  -306.382640
  -301.290790
  -304.025066
  -304.965279
  -302.918233
  -301.066450
  -304.341004
  -302.956968
  -304.823839
  -303.487041
  -304.623664
  -302.483953
  -301.242252
  -305.569773
  -302.205512
  -306.385014
  -304.028790
  -305.556334
  -305.131053
  -301.984953
  -303.736021
  -304.543923
  -306.215018
  -303.369876
  -307.620515
  -305.775249
  -307.038963
  -303.094944
  -306.959642
  -306.633106
  -305.306650
  -306.227408
  -306.963366
  -304.575193
  -302.712746
  -308.035264
  -305.785615
  -306.817461
  -303.142879
  -307.628535
  -304.257442
  -305.825286
  -307.641942
  -303.996758
  -310.410285
  -305.704856
  -306.379129
  -307.538011
  -310.102290
  -308.305915
  -305.431661
  -306.982330
  -309.063531
  -303.551151
  -305.135549
  -308.146882
  -308.977558
  -303.724921
  -309.024402
  -306.564631
  -304.695537
  -307.477002
  -308.959894
  -308.684834
  -309.673428
  -306.322766
  -310.097886
  -307.952772
  -309.599494
  -309.275223
  -305.949271
  -307.685007
  -310.385509
  -307.484965
  -310.856888
  -308.695559
  -310.016318
  -311.051228
  -307.208171
  -309.133726
  -308.945934
  -311.334227
  -310.582730
  -311.071532
  -308.645034
  -306.992401
  -311.594148
  -311.159741
  -309.680752
  -311.745731
  -308.427249
  -311.160457
  -306.656309
  -308.318837
  -310.425481
  -311.691141
  -309.797409
  -312.449758
  -309.562545
  -312.952751
  -309.359027
  -310.968163
  -312.472388
  -313.147895
  -313.810323
  -311.511864
  -313.192907
  -310.716756
  -312.968257
  -309.207202
  -313.801213
  -310.457047
  -311.552687
  -313.962379
  -312.005778
  -308.997168
  -310.246309
  -313.494652
  -311.898320
  -314.634628
  -314.568932
  -312.761553
  -311.648145
  -314.113842
  -314.296641
  -311.398220
  -315.354609
  -315.154029
  -314.773400
  -313.311954
  -315.198367
  -314.610713
  -312.805444
  -311.226714
  -319.150268
  -315.945721
  -313.847822
  -315.157293
  -315.899716
  -311.635116
  -312.582176
  -313.894519
  -312.444869
  -316.550806
  -314.362573
  -313.876151
  -315.869735
  -316.607255
  -313.729972
  -315.095395
  -313.553210
  -317.264852
  -317.321758
  -316.504457
  -317.242483
  -314.828270
  -313.735697
  -315.667042
  -317.045548
  -318.023310
  -314.676557
  -318.227803
  -316.183091
  -314.629396
  -318.684300
  -317.819557
  -315.896070
  -318.180857
  -318.746106
  -315.801747
  -314.786935
  -316.795402
  -316.695832
  -318.436335
  -315.650021
  -319.432673
  -319.693275
  -317.424169
  -318.920497
  -315.430162
  -319.439136
  -315.440185
  -316.917364
  -320.187821
  -316.788340
  -318.018375
  -320.728129
  -322.760110
  -319.741100
  -320.780781
  -316.721533
  -317.925107
  -321.368694
  -318.576947
  -320.277705
  -320.839538
  -317.892498
  -317.700025
  -320.937508
  -319.095654
  -321.621885
  -321.901452
  -319.008617
  -320.849952
  -319.848279
  -318.028098
  -318.996841
  -321.514770
  -322.303326
  -318.874359
  -323.142417
  -322.952820
  -318.977805
  -320.413453
  -320.010753
  -322.135338
  -319.545380
  -320.985473
  -319.943912
  -317.207227
  -322.952852
  -326.822873
  -321.038447
  -323.774264
  -324.375812
  -323.515511
  -323.318355
  -321.604782
  -324.622051
  -323.532522
  -321.055672
  -320.375950
  -324.566023
  -322.141674
  -324.188726
  -321.104381
  -325.745045
  -320.963254
  -325.284290
  -322.168858
  -322.933806
  -324.947441
  -322.072924
  -326.644898
  -325.357516
  -325.909749
  -323.494337
  -321.450374
  -325.355670
  -326.589080
  -323.213416
  -326.866404
  -326.289688
  -322.426845
  -323.149743
  -324.125163
  -325.866009
  -327.595042
  -323.080271
  -324.832062
  -323.121141
  -327.440323
  -326.525758
  -324.157439
  -327.295664
  -324.092055
  -325.160985
  -326.985902
  -328.132216
  -327.696054
  -328.820647
  -325.213734
  -325.551302
  -327.662955
  -329.008483
  -325.176645
  -324.665437
  -328.674359
  -322.331635
  -325.045679
  -326.180160
  -329.982036
  -328.338212
  -325.065737
  -329.629204
  -326.614133
  -326.367845
  -329.804709
  -328.973203
  -329.447653
  -326.117258
  -330.269992
  -325.130353
  -327.255028
  -330.961857
  -327.401899
  -329.539101
  -325.765878
  -329.953240
  -331.127637
  -327.856397
  -327.230960
  -330.204396
  -322.881577
  -330.909079
  -327.012554
  -332.391604
  -326.904688
  -331.761366
  -328.520661
  -330.850797
  -330.987060
  -328.289781
  -333.037574
  -331.335114
  -329.087991
  -328.132386
  -332.379681
  -333.341765
  -332.138052
  -329.556895
  -329.774318
  -333.442903
  -327.831827
  -332.086066
  -329.247418
  -329.703901
  -334.383150
  -330.523746
  -332.588383
  -329.115211
  -333.175139
  -329.037268
  -333.879605
  -330.905873
  -330.398503
  -334.914660
  -333.323217
  -330.231973
  -334.460642
  -331.587327
  -335.659818