# vtk DataFile Version 2.0
FSI_Simulation
ASCII

DATASET UNSTRUCTURED_GRID
POINTS 2042 double
  2.500000  0.410000  0.000000
  2.450000  0.410000  0.000000
  2.500000  0.358750  0.000000
  2.455000  0.345150  0.000000
  2.400000  0.410000  0.000000
  2.500000  0.307500  0.000000
  2.409170  0.352960  0.000000
  2.425000  0.303110  0.000000
  2.350000  0.410000  0.000000
  2.359860  0.354270  0.000000
  2.500000  0.256250  0.000000
  2.450000  0.259810  0.000000
  2.375000  0.303110  0.000000
  2.400000  0.259810  0.000000
  2.300000  0.410000  0.000000
  2.500000  0.205000  0.000000
  2.325000  0.303110  0.000000
  2.425000  0.216510  0.000000
  2.300000  0.346410  0.000000
  2.350000  0.259810  0.000000
  2.375000  0.216510  0.000000
  2.450000  0.173210  0.000000
  2.275000  0.303110  0.000000
  2.250000  0.410000  0.000000
  2.300000  0.259810  0.000000
  2.500000  0.153750  0.000000
  2.400000  0.173210  0.000000
  2.250000  0.346410  0.000000
  2.325000  0.216510  0.000000
  2.350000  0.173210  0.000000
  2.429170  0.133880  0.000000
  2.250000  0.259810  0.000000
  2.225000  0.303110  0.000000
  2.275000  0.216510  0.000000
  2.200000  0.410000  0.000000
  2.197270  0.363510  0.000000
  2.375000  0.129900  0.000000
  2.500000  0.102500  0.000000
  2.300000  0.173210  0.000000
  2.450000  0.086600  0.000000
  2.325000  0.129900  0.000000
  2.200000  0.259810  0.000000
  2.225000  0.216510  0.000000
  2.400000  0.086600  0.000000
  2.250000  0.173210  0.000000
  2.170490  0.306770  0.000000
  2.150000  0.410000  0.000000
  2.350000  0.086600  0.000000
  2.500000  0.051250  0.000000
  2.275000  0.129900  0.000000
  2.135420  0.358250  0.000000
  2.429170  0.044630  0.000000
  2.175000  0.216510  0.000000
  2.300000  0.086600  0.000000
  2.150000  0.259810  0.000000
  2.200000  0.173210  0.000000
  2.375000  0.043300  0.000000
  2.225000  0.129900  0.000000
  2.112500  0.313250  0.000000
  2.100000  0.410000  0.000000
  2.325000  0.043300  0.000000
  2.250000  0.086600  0.000000
  2.500000  0.000000  0.000000
  2.450000  0.000000  0.000000
  2.125000  0.216510  0.000000
  2.400000  0.000000  0.000000
  2.150000  0.173210  0.000000
  2.075000  0.366700  0.000000
  2.175000  0.129900  0.000000
  2.275000  0.043300  0.000000
  2.087500  0.269950  0.000000
  2.350000  0.000000  0.000000
  2.200000  0.086600  0.000000
  2.050000  0.410000  0.000000
  2.300000  0.000000  0.000000
  2.050000  0.323400  0.000000
  2.225000  0.043300  0.000000
  2.100000  0.173210  0.000000
  2.125000  0.129900  0.000000
  2.062500  0.226650  0.000000
  2.150000  0.086600  0.000000
  2.025000  0.366700  0.000000
  2.250000  0.000000  0.000000
  2.175000  0.043300  0.000000
  2.025000  0.280100  0.000000
  2.000000  0.410000  0.000000
  2.000000  0.323400  0.000000
  2.200000  0.000000  0.000000
  2.070830  0.133290  0.000000
  2.100000  0.086600  0.000000
  2.037500  0.183350  0.000000
  2.125000  0.043300  0.000000
  1.975000  0.366700  0.000000
  2.000000  0.236790  0.000000
  2.150000  0.000000  0.000000
  1.975000  0.280100  0.000000
  1.950000  0.410000  0.000000
  2.050000  0.086600  0.000000
  1.950000  0.323400  0.000000
  2.012500  0.140050  0.000000
  2.075000  0.043300  0.000000
  1.975000  0.193490  0.000000
  2.100000  0.000000  0.000000
  1.925000  0.366700  0.000000
  1.950000  0.236790  0.000000
  1.925000  0.280100  0.000000
  2.000000  0.086600  0.000000
  1.900000  0.410000  0.000000
  2.025000  0.043300  0.000000
  1.900000  0.323400  0.000000
  1.950000  0.150190  0.000000
  2.050000  0.000000  0.000000
  1.925000  0.193490  0.000000
  1.900000  0.236790  0.000000
  1.875000  0.366700  0.000000
  1.875000  0.280100  0.000000
  1.975000  0.043300  0.000000
  1.937500  0.096750  0.000000
  2.000000  0.000000  0.000000
  1.850000  0.410000  0.000000
  1.902380  0.145780  0.000000
  1.850000  0.323400  0.000000
  1.875000  0.193490  0.000000
  1.850000  0.236790  0.000000
  1.820830  0.365370  0.000000
  1.925000  0.043300  0.000000
  1.950000  0.000000  0.000000
  1.800000  0.410000  0.000000
  1.850000  0.150190  0.000000
  1.877180  0.088810  0.000000
  1.810710  0.280600  0.000000
  1.800000  0.323400  0.000000
  1.820830  0.195410  0.000000
  1.800000  0.236790  0.000000
  1.900000  0.000000  0.000000
  1.875360  0.035430  0.000000
  1.825000  0.106890  0.000000
  1.800000  0.150190  0.000000
  1.750000  0.410000  0.000000
  1.750000  0.358750  0.000000
  1.750000  0.307500  0.000000
  1.750000  0.256250  0.000000
  1.825000  0.043300  0.000000
  1.850000  0.000000  0.000000
  1.750000  0.205000  0.000000
  1.793300  0.076870  0.000000
  1.750000  0.153750  0.000000
  1.700640  0.410000  0.000000
  1.704300  0.327190  0.000000
  1.750000  0.102500  0.000000
  1.800000  0.000000  0.000000
  1.706240  0.242410  0.000000
  1.676060  0.366700  0.000000
  1.679550  0.284150  0.000000
  1.704500  0.168810  0.000000
  1.750000  0.051250  0.000000
  1.682040  0.198780  0.000000
  1.655740  0.327710  0.000000
  1.651490  0.410000  0.000000
  1.750000  0.000000  0.000000
  1.656690  0.241750  0.000000
  1.703750  0.082910  0.000000
  1.678980  0.125940  0.000000
  1.627030  0.366700  0.000000
  1.631170  0.284620  0.000000
  1.654610  0.169080  0.000000
  1.632070  0.198270  0.000000
  1.607330  0.328120  0.000000
  1.602560  0.410000  0.000000
  1.700280  0.000000  0.000000
  1.675600  0.043300  0.000000
  1.655160  0.082380  0.000000
  1.606810  0.241470  0.000000
  1.630810  0.125620  0.000000
  1.578220  0.366700  0.000000
  1.582990  0.284920  0.000000
  1.604730  0.168150  0.000000
  1.578920  0.210800  0.000000
  1.650920  0.000000  0.000000
  1.559000  0.328320  0.000000
  1.553870  0.410000  0.000000
  1.626430  0.043300  0.000000
  1.606660  0.082260  0.000000
  1.556930  0.242380  0.000000
  1.582820  0.125810  0.000000
  1.529630  0.366700  0.000000
  1.534940  0.284960  0.000000
  1.555320  0.166880  0.000000
  1.601940  0.000000  0.000000
  1.530950  0.199810  0.000000
  1.577650  0.043300  0.000000
  1.510670  0.328200  0.000000
  1.505400  0.410000  0.000000
  1.558080  0.082770  0.000000
  1.534730  0.126670  0.000000
  1.507460  0.243800  0.000000
  1.481280  0.366700  0.000000
  1.486910  0.284640  0.000000
  1.506480  0.166500  0.000000
  1.553350  0.000000  0.000000
  1.529250  0.043300  0.000000
  1.482130  0.200990  0.000000
  1.462240  0.327690  0.000000
  1.457160  0.410000  0.000000
  1.509220  0.083990  0.000000
  1.486020  0.128110  0.000000
  1.458500  0.244760  0.000000
  1.433170  0.366700  0.000000
  1.438620  0.283990  0.000000
  1.458930  0.158770  0.000000
  1.505150  0.000000  0.000000
  1.481250  0.043300  0.000000
  1.434180  0.201480  0.000000
  1.459870  0.085670  0.000000
  1.413590  0.326890  0.000000
  1.409170  0.410000  0.000000
  1.409940  0.244800  0.000000
  1.385300  0.366700  0.000000
  1.389560  0.283370  0.000000
  1.409090  0.158420  0.000000
  1.457350  0.000000  0.000000
  1.433650  0.043300  0.000000
  1.386550  0.201040  0.000000
  1.410050  0.086600  0.000000
  1.364750  0.326450  0.000000
  1.361420  0.410000  0.000000
  1.361460  0.243860  0.000000
  1.337670  0.366700  0.000000
  1.409950  0.000000  0.000000
  1.338650  0.284240  0.000000
  1.386460  0.043300  0.000000
  1.354150  0.119670  0.000000
  1.313920  0.410000  0.000000
  1.316290  0.328550  0.000000
  1.332940  0.164270  0.000000
  1.312360  0.242750  0.000000
  1.362970  0.000000  0.000000
  1.290300  0.366700  0.000000
  1.295390  0.283330  0.000000
  1.339680  0.043300  0.000000
  1.325730  0.078680  0.000000
  1.304410  0.123360  0.000000
  1.266670  0.410000  0.000000
  1.266740  0.323400  0.000000
  1.272670  0.239000  0.000000
  1.283210  0.168120  0.000000
  1.316400  0.000000  0.000000
  1.243180  0.366700  0.000000
  1.246180  0.281190  0.000000
  1.293330  0.043300  0.000000
  1.277840  0.081590  0.000000
  1.256410  0.126460  0.000000
  1.219690  0.410000  0.000000
  1.219750  0.323400  0.000000
  1.233390  0.170720  0.000000
  1.222230  0.237350  0.000000
  1.270260  0.000000  0.000000
  1.196320  0.366700  0.000000
  1.247400  0.043300  0.000000
  1.196390  0.280100  0.000000
  1.229040  0.084940  0.000000
  1.205650  0.129050  0.000000
  1.189490  0.207370  0.000000
  1.172960  0.410000  0.000000
  1.173020  0.323400  0.000000
  1.224540  0.000000  0.000000
  1.181510  0.158020  0.000000
  1.201900  0.043300  0.000000
  1.149720  0.366700  0.000000
  1.179360  0.086600  0.000000
  1.143430  0.291070  0.000000
  1.144660  0.247780  0.000000
  1.126490  0.410000  0.000000
  1.142770  0.189580  0.000000
  1.179250  0.000000  0.000000
  1.134770  0.140320  0.000000
  1.156830  0.043300  0.000000
  1.103400  0.366700  0.000000
  1.100860  0.316520  0.000000
  1.099450  0.268150  0.000000
  1.103580  0.220000  0.000000
  1.080300  0.410000  0.000000
  1.096330  0.172140  0.000000
  1.134410  0.000000  0.000000
  1.100760  0.105310  0.000000
  1.058360  0.324420  0.000000
  1.099400  0.056460  0.000000
  1.059350  0.282410  0.000000
  1.062400  0.233330  0.000000
  1.051490  0.361960  0.000000
  1.062400  0.206670  0.000000
  1.062400  0.140000  0.000000
  1.034380  0.410000  0.000000
  1.090000  0.000000  0.000000
  1.032380  0.305960  0.000000
  1.027830  0.333570  0.000000
  1.033760  0.246670  0.000000
  1.028220  0.281830  0.000000
  1.059860  0.078570  0.000000
  1.030770  0.220170  0.000000
  1.033760  0.193330  0.000000
  1.015410  0.368300  0.000000
  1.056850  0.040910  0.000000
  1.013850  0.293330  0.000000
  1.011380  0.313820  0.000000
  1.013850  0.280000  0.000000
  1.013850  0.266670  0.000000
  1.013850  0.240000  0.000000
  1.012290  0.252000  0.000000
  1.025480  0.152840  0.000000
  1.013850  0.226670  0.000000
  1.028350  0.124560  0.000000
  1.002130  0.333160  0.000000
  1.012290  0.214670  0.000000
  1.013850  0.200000  0.000000
  1.032380  0.094040  0.000000
  1.000000  0.300000  0.000000
  1.012290  0.188000  0.000000
  1.013850  0.173330  0.000000
[...]
POINT_DATA 2042
SCALARS pressure double
LOOKUP_TABLE default
  0.239611
  -0.220831
  -0.075985
  -0.253044
  0.054531
  0.136864
  -0.073357
  -0.199986
  -0.382146
  -0.178932
  0.024140
  -0.052474
  -0.188201
  -0.116616
  -0.601373
  -0.059332
  -0.136397
  -0.050500
  -0.354575
  -0.084934
  -0.078453
  -0.009286
  0.000847
  0.229320
  -0.060038
  0.057109
  -0.066277
  -0.079809
  -0.084725
  -0.075244
  -0.091260
  -0.133126
  -0.172054
  -0.102614
  0.057682
  0.048806
  -0.090771
  -0.024282
  -0.084968
  -0.145336
  -0.089825
  -0.096875
  -0.047891
  -0.104477
  -0.062377
  0.039913
  -0.262808
  -0.095191
  -0.058579
  -0.080230
  -0.115189
  -0.106004
  -0.058347
  -0.079730
  -0.059757
  -0.065773
  -0.094127
  -0.082179
  -0.063608
  0.039574
  -0.099331
  -0.072854
  -0.258475
  -0.155263
  -0.012964
  -0.119708
  -0.052451
  0.046506
  -0.064277
  -0.091513
  -0.076193
  -0.104250
  -0.048139
  0.045791
  -0.095927
  0.055093
  -0.079466
  -0.036905
  -0.051305
  -0.013732
  -0.034796
  0.045654
  -0.069449
  -0.070446
  -0.017441
  0.037618
  0.042390
  -0.057756
  -0.034242
  -0.015394
  -0.022120
  -0.049532
  0.014048
  0.009175
  -0.034358
  -0.020580
  0.026493
  -0.003164
  0.032124
  -0.020697
  -0.037098
  -0.005569
  -0.005092
  0.010234
  0.010372
  -0.008310
  -0.012816
  0.094557
  -0.034487
  0.025834
  -0.002232
  -0.004542
  -0.003265
  0.012216
  0.059250
  -0.020727
  -0.047571
  0.065673
  -0.027612
  0.154637
  0.019131
  0.009007
  0.002504
  -0.014359
  -0.059451
  0.017992
  -0.144943
  -0.244884
  0.022563
  0.009812
  0.011765
  0.044877
  -0.047864
  -0.023250
  0.383119
  0.179818
  0.005518
  -0.014392
  -0.226294
  -0.140091
  -0.051174
  -0.037930
  0.002711
  0.086102
  0.006128
  0.015541
  -0.031394
  0.010794
  -0.054318
  -0.063174
  -0.212889
  -0.021324
  0.070262
  0.017962
  -0.036299
  -0.171466
  -0.009252
  0.003271
  0.026384
  -0.228465
  -0.007344
  -0.063392
  -0.010600
  0.050860
  0.024678
  -0.015068
  0.013160
  0.023122
  0.030892
  -0.016795
  0.042760
  -0.020451
  0.007587
  0.006296
  0.037164
  0.020152
  0.003604
  0.012973
  0.003398
  0.034337
  0.042863
  0.027191
  0.004691
  0.026123
  0.014958
  0.039636
  0.025590
  0.015420
  0.022256
  0.024851
  0.026574
  0.043921
  0.046491
  0.024307
  0.033417
  0.031792
  0.039505
  0.027376
  0.021453
  0.047594
  0.036600
  0.035732
  0.052200
  0.056930
  0.040700
  0.054202
  0.041073
  0.043046
  0.030479
  0.022927
  0.060793
  0.035873
  0.047721
  0.070742
  0.058506
  0.055131
  0.053568
  0.042900
  0.032622
  0.044502
  0.055090
  0.036777
  0.051553
  0.065710
  0.058648
  0.048327
  0.057867
  0.038319
  0.102940
  0.045435
  0.057986
  0.054067
  0.073611
  0.063775
  0.057928
  0.062823
  0.065558
  0.056419
  0.035660
  0.037283
  0.092307
  0.041644
  0.067068
  0.058178
  0.059163
  0.034809
  0.091045
  0.037121
  0.032795
  0.051943
  0.102671
  0.067858
  0.078632
  0.088435
  0.041962
  0.020132
  0.153578
  0.053106
  0.063296
  0.054056
  0.126414
  0.009299
  0.005805
  0.209215
  0.062973
  0.270378
  0.054463
  0.140666
  0.095951
  0.021689
  0.062047
  0.043399
  0.196133
  0.010753
  0.362992
  0.093297
  -0.045131
  -0.013244
  0.072845
  -0.003702
  -0.021626
  -0.167907
  -0.027163
  -0.011957
  0.046038
  0.029979
  -0.166636
  -0.004488
  0.007711
  -0.031075
  0.002071
  -0.059188
  0.086176
  -0.046562
  -0.068554
  -0.048789
  -0.006201
  -0.034219
  -0.050546
  -0.015046
  -0.033348
  -0.093245
  -0.421062
  -0.038291
  -0.071267
  -0.042548
  -0.042399
  -0.033213
  -0.035362
  -0.045838
  -0.034490
  -0.089981
  0.029126
  -0.040546
  -0.046158
  -0.171568
  -0.068764
  -0.058834
  -0.060502
  -0.060355
  -0.057168
  -0.053722
  -0.057943
  -0.051054
  -0.315954
  -0.059750
  -0.054503
  -0.051049
  -0.366147
  0.001288
  -0.063381
  -0.051899
  -0.026248
  -0.056759
  -0.076066
  -0.061611
  -0.100097
  -0.067138
  -0.066199
  -0.064191
  -0.068369
  -0.069905
  -0.063774
  -0.167672
  -0.073619
  -0.074027
  -0.071388
  -0.065336
  -0.068393
  -0.069087
  -0.081222
  -0.087019
  -0.069653
  -0.107317
  -0.072346
  -0.076465
  -0.105674
  -0.071405
  -0.073751
  -0.073540
  -0.091394
  -0.079093
  -0.077623
  -0.076635
  -0.073217
  -0.076503
  -0.108896
  -0.077790
  -0.097605
  -0.086576
  -0.075811
  -0.080285
  -0.078998
  -0.090405
  -0.080837
  -0.081074
  -0.062514
  -0.081702
  -0.092474
  -0.083443
  -0.084253
  -0.083980
  -0.084006
  -0.085149
  -0.078088
  -0.085983
  -0.088940
  -0.086959
  -0.086839
  -0.088795
  0.047420
  -0.063270
  -0.090732
  -0.131728
  -0.087118
  -0.023873
  -0.089066
  -0.082043
  -0.090593
  -0.092361
  0.051224
  -0.092418
  -0.093580
  -0.083183
  -0.096147
  -0.088075
  -0.102298
  -0.091983
  -0.094172
  -0.068831
  -0.078244
  -0.097802
  -0.097070
  -0.100270
  -0.102594
  -0.074059
  -0.037816
  -0.093304
  -0.097564
  -0.086186
  -0.100250
  -0.101454
  -0.102484
  -0.104645
  -0.066394
  -0.106545
  0.160212
  -0.112027
  -0.099683
  -0.103368
  -0.094477
  -0.078647
  -0.108438
  -0.106998
  -0.114539
  -0.110923
  -0.112000
  -0.022929
  -0.100802
  -0.106429
  -0.177340
  -0.109866
  -0.089983
  -0.117198
  -0.112976
  -0.052753
  -0.115349
  -0.117150
  -0.079146
  -0.121734
  -0.108281
  -0.101127
  -0.113316
  -0.159473
  -0.116357
  -0.084889
  -0.118773
  -0.121576
  -0.052425
  -0.123918
  -0.021128
  -0.126170
  -0.109672
  -0.115772
  -0.119904
  0.108733
  -0.099550
  -0.125239
  -0.131725
  -0.123294
  -0.080132
  -0.128402
  -0.133112
  -0.117808
  -0.122997
  -0.111470
  -0.126465
  -0.142098
  -0.101942
  -0.129450
  -0.172790
  -0.132568
  -0.135338
  -0.039914
  -0.144241
  -0.119676
  -0.126120
  -0.130133
  -0.133059
  -0.112138
  -0.135949
  -0.146730
  -0.082695
  -0.064905
  -0.138581
  -0.112838
  -0.145307
  -0.111172
  -0.128903
  -0.133331
  -0.119922
  -0.136977
  -0.140267
  -0.142688
  -0.140047
  -0.079125
  -0.070264
  -0.146692
  -0.151070
  -0.136650
  -0.132297
  -0.143504
  -0.140728
  -0.146813
  -0.121304
  -0.153276
  -0.142895
  -0.149852
  -0.152463
  -0.140058
  -0.144018
  -0.135174
  -0.147337
  -0.153185
  -0.150598
  -0.142604
  -0.213688
  -0.157106
  -0.129780
  -0.144364
  -0.161683
  -0.147936
  -0.151282
  -0.137405
  -0.154058
  -0.157703
  -0.142022
  -0.163776
  -0.160951
  -0.115605
  -0.166830
  -0.151996
  -0.147617
  -0.154773
  -0.157941
  -0.160940
  -0.163832
  -0.156530
  -0.172981
  -0.174263
  -0.169624
  -0.144145
  -0.157023
  -0.158782
  -0.176246
  -0.161918
  -0.157526
  -0.164520
  -0.208817
  -0.168430
  -0.166923
  -0.176960
  -0.171940
  -0.177784
  -0.163022
  -0.176916
  -0.164246
  -0.169039
  -0.165544
  -0.168420
  -0.171322
  -0.175714
  -0.180551
  -0.178462
  -0.128393
  -0.182012
  -0.180790
  -0.170095
  -0.169936
  -0.172033
  -0.169201
  -0.174507
  -0.329126
  -0.178976
  -0.177235
  -0.186150
  -0.182463
  -0.183821
  -0.178501
  -0.175854
  -0.176119
  -0.178525
  -0.181400
  -0.198285
  -0.186134
  -0.193304
  -0.196324
  -0.209329
  -0.181066
  -0.181172
  -0.182106
  -0.186494
  -0.184270
  -0.194503
  -0.189057
  -0.201549
  -0.200866
  -0.212920
  -0.195309
  -0.178971
  -0.186989
  -0.186072
  -0.185974
  -0.187963
  -0.200138
  -0.190991
  -0.234390
  -0.200425
  -0.196369
  -0.230652
  -0.204665
  -0.218132
  -0.191000
  -0.191329
  -0.191846
  -0.193383
  -0.213135
  -0.188067
  -0.198753
  -0.235084
  -0.205160
  -0.222673
  -0.194116
  -0.196305
  -0.195801
  -0.197049
  -0.199861
  -0.079761
  -0.241254
  -0.205571
  -0.216320
  -0.239247
  -0.207976
  -0.223717
  -0.200922
  -0.201569
  -0.201663
  -0.062640
  -0.233955
  -0.201546
  -0.226334
  -0.203125
  -0.207544
  -0.248851
  -0.214534
  -0.206514
  -0.205096
  -0.207833
  -0.205569
  -0.207535
  -0.151750
  -0.214044
  -0.202331
  -0.280398
  -0.226268
  -0.235851
  -0.211243
  -0.212932
  -0.209805
  -0.248414
  -0.208644
  -0.309330
  -0.205367
  -0.215362
  -0.271250
  -0.222085
  -0.236844
  -0.217565
  -0.214273
  -0.220060
  -0.213063
  -0.307641
  -0.144950
  -0.214371
  -0.220481
  -0.233556
  -0.207051
  -0.239756
  -0.249971
  -0.221601
  -0.224550
  -0.260329
  -0.218036
  -0.165245
  -0.214304
  -0.231285
  -0.221618
  -0.259791
  -0.228015
  -0.245785
  -0.265009
  -0.229673
  -0.223458
  -0.235053
  -0.219626
  -0.218662
  -0.231075
  -0.279631
  -0.226579
  -0.244026
  -0.241078
  -0.259297
  -0.282514
  -0.225254
  -0.232069
  -0.237637
  -0.218170
  -0.253843
  -0.243225
  -0.226321
  -0.388342
  -0.232825
  -0.290061
  -0.255708
  -0.278061
  -0.241110
  -0.232986
  -0.224304
  -0.248068
  -0.292814
  -0.220630
  -0.230075
  -0.247103
  -0.247243
  -0.271378
  -0.242716
  -0.248999
  -0.296155
  -0.232468
  -0.474425
  -0.229065
  -0.219719
  -0.254762
  -0.228727
  -0.234838
  -0.311955
  -0.264765
  -0.259165
  -0.291341
  -0.252239
  -0.242654
  -0.228421
  -0.244602
  -0.218411
  -0.230032
  -0.332649
  -0.251477
  -0.257758
  -0.250840
  -0.282939
  -0.314601
  -0.254573
  -0.240207
  -0.268451
  -0.218616
  -0.273376
  -0.366462
  -0.222895
  -0.235719
  -0.350775
  -0.274006
  -0.307307
  -0.267090
  -0.253964
  -0.233361
  -0.210634
  -0.371417
  -0.226649
  -0.255136
  -0.297745
  -0.292580
  -0.337271
  -0.269495
  -0.282696
  -0.249489
  -0.248393
  -0.217307
  -0.213452
  -0.289495
  -0.361697
  -0.233938
  -0.373043
  -0.283066
  -0.325218
  -0.284758
  -0.267022
  -0.238996
  -0.294086
  -0.199747
  -0.219607
  -0.257567
  -0.402978
  -0.260557
  -0.311610
  -0.312241
  -0.285538
  -0.302540
  -0.261814
  -0.217993
  -0.361166
  -0.200868
  -0.305852
  -0.453471
  -0.233483
  -0.401033
  -0.293012
  -0.302641
  -0.283702
  -0.250169
  -0.344434
  -0.191008
  -0.420208
  -0.213997
  -0.264053
  -0.314771
  -0.329445
  -0.382685
  -0.304746
  -0.319772
  -0.278716
  -0.227046
  -0.305784
  -0.188278
  -0.325839
  -0.236409
  -0.421834
  -0.374629
  -0.307451
  -0.391588
  -0.361257
  -0.321890
  -0.305951
  -0.266907
  -0.199036
  -0.208428
  -0.403195
  -0.413291
  -0.275540
  -0.327563
  -0.310594
  -0.352643
  -0.396267
  -0.328453
  -0.347249
  -0.304398
  -0.243931
  -0.346897
  -0.195969
  -0.411910
  -0.238047
  -0.328715
  -0.434354
  -0.334108
  -0.395645
  -0.347955
  -0.335918
  -0.297350
  -0.216588
  -0.438601
  -0.349910
  -0.216629
  -0.437216
  -0.293648
  -0.384095
  -0.432423
  -0.362241
  -0.338790
  -0.285260
  -0.365283
  -0.205884
  -0.537261
  -0.265561
  -0.361737
  -0.737740
  -0.465036
  -0.429049
  -0.374348
  -0.383305
  -0.338134
  -0.257363
  -0.471828
  -0.243794
  -0.334793
  -0.382967
  -0.430291
  -0.482759
  -0.328583
  -0.471414
  -0.402005
  -0.386896
  -0.409690
  -0.254483
  -0.407344
  -0.311187
  -0.528226
  -0.421308
  -0.494934
  -0.480164
  -0.376155
  -0.505981
  -0.427738
  -0.422241
  -0.319977
  -0.399878
  -0.309618
  -0.404055
  -0.441092
  -0.524561
  -0.498370
  -0.522633
  -0.449525
  -0.445556
  -0.448643
  -0.419365
  -0.451515
  -0.316315
  -0.398266
  -0.502896
  -0.544331
  -0.537774
  -0.550765
  -0.472049
  -0.476064
  -0.440687
  -0.475213
  -0.375026
  -0.529262
  -0.471603
  -0.547889
  -0.589345
  -0.581242
  -0.497192
  -0.509813
  -0.483813
  -0.532566
  -0.569481
  -0.500138
  -0.579049
  -0.641411
  -0.570333
  -0.621383
  -0.597357
  -0.525575
  -0.514678
  -0.512717
  -0.534530
  -0.553383
  -0.593010
  -0.681448
  -0.558882
  -0.501413
  -0.478313
  -0.636365
  -0.636300
  -0.463358
  -0.620165
  -0.780039
  -0.607854
  -0.542988
  -0.586380
  -0.522722
  -0.789513
  -0.604275
  -0.644301
  -0.715219
  -0.808211
  -0.501388
  -0.550696
  -0.828185
  -0.588296
  -0.668152
  -0.537500
  -0.482349
  -0.827262
  -0.601511
  -0.686674
  -0.783231
  -0.647402
  -0.587381
  -0.646027
  -0.551088
  -1.027998
  -1.005234
  -0.638332
  -0.582989
  -1.106140
  -0.690430
  -0.882539
  -1.047494
  -0.641630
  -0.730885
  -0.974168
  -0.803828
  -0.564739
  -0.740125
  -0.677373
  -0.663864
  -0.498889
  -1.261797
  -1.240350
  -0.630222
  -0.595303
  -0.704692
  -0.865929
  -1.210343
  -1.055475
  -1.268695
  -0.620447
  -1.215556
  -0.467910
  -0.669546
  -0.914710
  -0.725296
  -0.681809
  -0.807720
  -0.791065
  -1.265786
  -1.254311
  -1.017274
  -1.235511
  -0.592133
  -0.690059
  -1.234184
  -0.566724
  -1.153024
  -0.693950
  -1.122253
  -0.619885
  -0.742616
  -0.886695
  -1.092799
  -0.661854
  -1.045901
  -0.868702
  -0.664010
  -0.998434
  -0.730035
  -1.051830
  -0.556248
  -0.982142
  -0.708495
  -0.779627
  -0.815646
  -1.018877
  -0.613700
  -1.003241
  -0.669070
  -0.710833
  -0.595670
  -0.980600
  -0.985512
  -0.570912
  -0.835231
  -0.653642
  -0.758090
  -0.883493
  -0.897264
  -0.748761
  -0.595641
  -0.977001
  -0.955490
  -0.658607
  -0.693134
  -0.933113
  -0.954193
  -0.941226
  -0.940528
  -0.784908
  -0.813698
  -0.655416
  -0.717196
  -0.644533
  -0.731189
  -0.929793
  -0.886373
  -0.641085
  -0.823723
  -0.911981
  -0.673006
  -0.896670
  -0.851165
  -0.752750
  -0.716420
  -0.766758
  -0.871175
  -0.674710
  -0.893208
  -0.707235
  -0.907053
  -0.873268
  -0.784303
  -0.885056
  -0.903765
  -0.796894
  -0.652345
  -0.728951
  -0.734353
  -0.651065
  -0.866249
  -0.823455
  -0.901394
  -0.685373
  -0.822117
  -0.833837
  -0.752129
  -0.759747
  -0.584352
  -0.895607
  -0.682671
  -0.709717
  -0.705027
  -0.844316
  -0.829488
  -0.850045
  -0.775717
  -0.780515
  -0.625804
  -0.654279
  -0.811042
  -0.841129
  -0.674698
  -0.728145
  -0.731503
  -0.811223
  -0.807635
  -0.689087
  -0.527653
  -0.785356
  -0.808124
  -0.828874
  -0.607618
  -0.742266
  -0.750679
  -0.798891
  -0.690377
  -0.615416
  -0.708619
  -0.821343
  -0.699952
  -0.670336
  -0.750736
  -0.763513
  -0.691227
  -0.798683
  -0.803789
  -0.802024
  -0.718606
  -0.724598
  -0.687920
  -0.789492
  -0.785373
  -0.807606
  -0.691926
  -0.777370
  -0.723193
  -0.736837
  -0.754760
  -0.789641
  -0.812559
  -0.697182
  -0.708174
  -0.779944
  -0.780036
  -0.699052
  -0.796062
  -0.739572
  -0.745847
  -0.673650
  -0.692444
  -0.768172
  -0.778829
  -0.709495
  -0.718037
  -0.772511
  -0.681452
  -0.692439
  -0.783629
  -0.774416
  -0.753981
  -0.715420
  -0.725495
  -0.653049
  -0.704822
  -0.769551
  -0.787560
  -0.682593
  -0.549458
  -0.747004
  -0.725528
  -0.730125
  -0.763877
  -0.680694
  -0.694477
  -0.706891
  -0.747638
  -0.643975
  -0.743299
  -0.684846
  -0.697289
  -0.741084
  -0.738472
  -0.672214
  -0.690457
  -0.748615
  -0.710781
  -0.721873
  -0.621733
  -0.694483
  -0.659890
  -0.679815
  -0.710808
  -0.735987
  -0.691686
  -0.686801
  -0.712040
  -0.679906
  -0.627811
  -0.639797
  -0.713140
  -0.681811
  -0.678934
  -0.789228
  -0.698519
  -0.721860
  -0.685309
  -0.663816
  -0.711629
  -0.709621
  -0.675670
  -0.675860
  -0.698398
  -0.711659
  -0.690900
  -0.663518
  -0.655705
  -0.675866
  -0.687482
  -0.694440
  -0.678942
  -0.702247
  -0.669236
  -0.659522
  -0.688676
  -0.637069
  -0.680671
  -0.688786
  -0.653308
  -0.671761
  -0.687029
  -0.668888
  -0.647069
  -0.686190
  -0.687498
  -0.679620
  -0.683218
  -0.669310
  -0.681817
  -0.652687
  -0.650283
  -0.679037
  -0.659262
  -0.683541
  -0.660583
  -0.717868
  -0.680743
  -0.633573
  -0.677357
  -0.671347
  -0.656352
  -0.692485
  -0.663411
  -0.651205
  -0.676139
  -0.672847
  -0.671176
  -0.660250
  -0.640257
  -0.631960
  -0.668782
  -0.676725
  -0.629059
  -0.660326
  -0.640538
  -0.651870
  -0.663277
  -0.609405
  -0.669590
  -0.678847
  -0.659861
  -0.596582
  -0.627536
  -0.664577
  -0.660089
  -0.639443
  -0.677180
  -0.650799
  -0.647836
  -0.587415
  -0.668747
  -0.640743
  -0.654729
  -0.697779
  -0.590123
  -0.729719
  -0.629114
  -0.624925
  -0.661350
  -0.605333
  -0.608483
  -0.619052
  -0.648936
  -0.572231
  -0.638842
  -0.689084
  -0.600591
  -0.582783
  -0.590213
  -0.655136
  -0.664021
  -0.665386
  -0.630740
  -0.624899
  -0.581137
  -0.610915
  -0.630183
  -0.695154
  -0.588632
  -0.608470
  -0.572576
  -0.687306
  -0.592810
  -0.659156
  -0.607657
  -0.639400
  -0.582181
  -0.688879
  -0.604077
  -0.594657
  -0.606382
  -0.675875
  -0.640519
  -0.615976
  -0.666825
  -0.616591
  -0.585366
  -0.573107
  -0.561224
  -0.617041
  -0.571771
  -0.537163
  -0.588140
  -0.553152
  -0.664245
  -0.551104
  -0.544569
  -0.522554
  -0.629614
  -0.592388
  -0.674083
  -0.549652
  -0.671545
  -0.625530
  -0.532510
  -0.677333
  -0.507484
  -0.656363
  -0.599532
  -0.485380
  -0.573237
  -0.747858
  -0.495563
  -0.520118
  -0.592154
  -0.560460
  -0.653416
  -0.461920
  -0.658927
  -0.501602
  -0.482908
  -0.658894
  -0.492397
  -0.618322
  -0.445997
  -0.562051
  -0.488416
  -0.684685
  -0.518585
  -0.611792
  -0.687670
  -0.638725
  -0.580018
  -0.433787
  -0.928199
  -0.498920
  -0.518929
  -0.721181
  -0.464996
  -0.420001
  -0.577532
  -0.528808
  -0.679384
  -0.439863
  -0.430272
  -0.427211
  -0.619312
  -0.642803
  -0.416563
  -0.533926
  -0.445377
  -0.709889
  -0.427063
  -0.396968
  -0.610165
  -0.450556
  -0.636780
  -0.559665
  -0.394908
  -0.483786
  -0.656924
  -0.392317
  -0.563193
  -0.487922
  -0.350725
  -0.699808
  -0.355738
  -0.366157
  -0.651863
  -0.609004
  -0.422569
  -0.513985
  -0.342623
  -0.643273
  -0.325364
  -0.407614
  -0.326846
  -0.749993
  -0.308406
  -0.638926
  -0.538094
  -0.291412
  -0.458299
  -0.607550
  -0.671151
  -0.289542
  -0.673829
  -0.447502
  -0.256711
  -0.563325
  -0.734965
  -0.281450
  -0.505697
  -0.613456
  -0.283606
  -0.350994
  -0.651643
  -0.232289
  -0.333676
  -0.230582
  -0.244700
  -0.776593
  -0.206348
  -0.648465
  -0.528357
  -0.212275
  -0.620975
  -0.454147
  -0.183280
  -0.706353
  -0.678810
  -0.808257
  -0.417885
  -0.789732
  -0.282170
  -0.182640
  -0.552657
  -0.150791
  -0.637311
  -0.689633
  -0.150954
  -1.120914
  -0.292555
  -0.188846
  -0.137093
  -0.835400
  -0.392713
  -0.694353
  -0.155402
  -0.545220
  -0.134676
  -0.767769
  -0.645107
  -0.105335
  -0.138911
  -0.111700
  -0.522837
  -0.401865
  -0.270507
  -0.966466
  -0.873622
  -0.707917
  -0.142055
  -0.744410
  -0.071879
  -0.117748
  -0.641108
  -0.094556
  -0.188564
  -0.439682
  -0.967690
  -0.752772
  -0.626493
  -0.182918
  -0.860848
  -0.142844
  -0.059440
  -0.793354
  -0.749706
  -0.614193
  -0.145433
  -0.342938
  -0.494113
  -1.003085
  -0.129079
  -0.798168
  -0.837574
  -0.205554
  -1.004193
  -0.088208
  -0.753849
  -0.561217
  -0.421703
  -0.837051
  -0.799681
  -0.214477
  -0.277470
  -0.226722
  -1.091139
  -1.033958
  -0.290879
  -0.745355
  -0.867135
  -1.092377
  -0.246942
  -0.785801
  -0.562647
  -1.141318
  -0.327178
  -1.089896
  -0.884213
  -0.407208
  -0.640872
  -1.184772
  -0.885873
  -0.910602
  -0.923894
  -0.479138
  -1.197402
  -1.183353
  -0.957871
  -0.471953
  -0.569984
  -1.299699
  -0.687307
  -0.984323
  -0.750500
  -1.025070
  -1.260382
  -1.035227
  -0.736206
  -0.911346
  -1.296018
  -0.819405
  -1.519920
  -0.981206
  -0.871353
  -1.434581
  -1.105333
  -0.962857
  -1.362570
  -1.257340
  -1.244572
  -1.166559
  -1.806811
  -1.117125
  -1.113471
  -1.226725
  -1.715049
  -1.373201
  -1.253048
  -0.992474
  -2.043920
  -1.236187
  -1.563579
  -1.450479
  -2.133399
  -1.134349
  -1.547109
  -1.693140
  -1.684765
  -1.722740
  -1.693013
  -1.464371
  -2.581904
  -1.291926
  -1.282433
  -1.771927
  -2.079456
  -1.135477
  -2.589169
  -2.215927
  -1.993037
  -1.819705
  -2.283078
  -2.187956
  -1.460277
  -2.124289
  -1.615455
  -2.510465
  -2.842281
  -1.277609
  -2.343078
  -2.141131
  -2.374316
  -2.586031
  -1.830914
  -3.287260
  -1.497959
  -1.436672
  -2.466800
  -1.955836
  -2.843865
  -2.749653
  -1.290361
  -2.775622
  -2.352817
  -1.738656
  -3.181609
  -2.646247
  -2.813524
  -1.158784
  -3.148291
  -1.446781
  -1.753949
  -3.346205
  -2.732670
  -2.869356
  -2.544501
  -3.434377
  -2.894756
  -1.683377
  -2.059010
  -2.943893
  -2.215698
  -1.153889
  -1.498812
  -3.207681
  -3.292967
  -2.898794
  -2.864728
  -0.508373
  -3.078661
  -2.972736
  -2.780399
  -1.909630
  -3.329194