# vtk DataFile Version 2.0
FSI_Simulation
ASCII

DATASET UNSTRUCTURED_GRID
POINTS 2042 double
  2.500000  0.410000  0.000000
  2.450000  0.410000  0.000000
  2.500000  0.358750  0.000000
  2.455000  0.345150  0.000000
  2.400000  0.410000  0.000000
  2.500000  0.307500  0.000000
  2.409170  0.352960  0.000000
  2.425000  0.303110  0.000000
  2.350000  0.410000  0.000000
  2.359860  0.354270  0.000000
  2.500000  0.256250  0.000000
  2.450000  0.259810  0.000000
  2.375000  0.303110  0.000000
  2.400000  0.259810  0.000000
  2.300000  0.410000  0.000000
  2.500000  0.205000  0.000000
  2.325000  0.303110  0.000000
  2.425000  0.216510  0.000000
  2.300000  0.346410  0.000000
  2.350000  0.259810  0.000000
  2.375000  0.216510  0.000000
  2.450000  0.173210  0.000000
  2.275000  0.303110  0.000000
  2.250000  0.410000  0.000000
  2.300000  0.259810  0.000000
  2.500000  0.153750  0.000000
  2.400000  0.173210  0.000000
  2.250000  0.346410  0.000000
  2.325000  0.216510  0.000000
  2.350000  0.173210  0.000000
  2.429170  0.133880  0.000000
  2.250000  0.259810  0.000000
  2.225000  0.303110  0.000000
  2.275000  0.216510  0.000000
  2.200000  0.410000  0.000000
  2.197270  0.363510  0.000000
  2.375000  0.129900  0.000000
  2.500000  0.102500  0.000000
  2.300000  0.173210  0.000000
  2.450000  0.086600  0.000000
  2.325000  0.129900  0.000000
  2.200000  0.259810  0.000000
  2.225000  0.216510  0.000000
  2.400000  0.086600  0.000000
  2.250000  0.173210  0.000000
  2.170490  0.306770  0.000000
  2.150000  0.410000  0.000000
  2.350000  0.086600  0.000000
  2.500000  0.051250  0.000000
  2.275000  0.129900  0.000000
  2.135420  0.358250  0.000000
  2.429170  0.044630  0.000000
  2.175000  0.216510  0.000000
  2.300000  0.086600  0.000000
  2.150000  0.259810  0.000000
  2.200000  0.173210  0.000000
  2.375000  0.043300  0.000000
  2.225000  0.129900  0.000000
  2.112500  0.313250  0.000000
  2.100000  0.410000  0.000000
  2.325000  0.043300  0.000000
  2.250000  0.086600  0.000000
  2.500000  0.000000  0.000000
  2.450000  0.000000  0.000000
  2.125000  0.216510  0.000000
  2.400000  0.000000  0.000000
  2.150000  0.173210  0.000000
  2.075000  0.366700  0.000000
  2.175000  0.129900  0.000000
  2.275000  0.043300  0.000000
  2.087500  0.269950  0.000000
  2.350000  0.000000  0.000000
  2.200000  0.086600  0.000000
  2.050000  0.410000  0.000000
  2.300000  0.000000  0.000000
  2.050000  0.323400  0.000000
  2.225000  0.043300  0.000000
  2.100000  0.173210  0.000000
  2.125000  0.129900  0.000000
  2.062500  0.226650  0.000000
  2.150000  0.086600  0.000000
  2.025000  0.366700  0.000000
  2.250000  0.000000  0.000000
  2.175000  0.043300  0.000000
  2.025000  0.280100  0.000000
  2.000000  0.410000  0.000000
  2.000000  0.323400  0.000000
  2.200000  0.000000  0.000000
  2.070830  0.133290  0.000000
  2.100000  0.086600  0.000000
  2.037500  0.183350  0.000000
  2.125000  0.043300  0.000000
  1.975000  0.366700  0.000000
  2.000000  0.236790  0.000000
  2.150000  0.000000  0.000000
  1.975000  0.280100  0.000000
  1.950000  0.410000  0.000000
  2.050000  0.086600  0.000000
  1.950000  0.323400  0.000000
  2.012500  0.140050  0.000000
  2.075000  0.043300  0.000000
  1.975000  0.193490  0.000000
  2.100000  0.000000  0.000000
  1.925000  0.366700  0.000000
  1.950000  0.236790  0.000000
  1.925000  0.280100  0.000000
  2.000000  0.086600  0.000000
  1.900000  0.410000  0.000000
  2.025000  0.043300  0.000000
  1.900000  0.323400  0.000000
  1.950000  0.150190  0.000000
  2.050000  0.000000  0.000000
  1.925000  0.193490  0.000000
  1.900000  0.236790  0.000000
  1.875000  0.366700  0.000000
  1.875000  0.280100  0.000000
  1.975000  0.043300  0.000000
  1.937500  0.096750  0.000000
  2.000000  0.000000  0.000000
  1.850000  0.410000  0.000000
  1.902380  0.145780  0.000000
  1.850000  0.323400  0.000000
  1.875000  0.193490  0.000000
  1.850000  0.236790  0.000000
  1.820830  0.365370  0.000000
  1.925000  0.043300  0.000000
  1.950000  0.000000  0.000000
  1.800000  0.410000  0.000000
  1.850000  0.150190  0.000000
  1.877180  0.088810  0.000000
  1.810710  0.280600  0.000000
  1.800000  0.323400  0.000000
  1.820830  0.195410  0.000000
  1.800000  0.236790  0.000000
  1.900000  0.000000  0.000000
  1.875360  0.035430  0.000000
  1.825000  0.106890  0.000000
  1.800000  0.150190  0.000000
  1.750000  0.410000  0.000000
  1.750000  0.358750  0.000000
  1.750000  0.307500  0.000000
  1.750000  0.256250  0.000000
  1.825000  0.043300  0.000000
  1.850000  0.000000  0.000000
  1.750000  0.205000  0.000000
  1.793300  0.076870  0.000000
  1.750000  0.153750  0.000000
  1.700640  0.410000  0.000000
  1.704300  0.327190  0.000000
  1.750000  0.102500  0.000000
  1.800000  0.000000  0.000000
  1.706240  0.242410  0.000000
  1.676060  0.366700  0.000000
  1.679550  0.284150  0.000000
  1.704500  0.168810  0.000000
  1.750000  0.051250  0.000000
  1.682040  0.198780  0.000000
  1.655740  0.327710  0.000000
  1.651490  0.410000  0.000000
  1.750000  0.000000  0.000000
  1.656690  0.241750  0.000000
  1.703750  0.082910  0.000000
  1.678980  0.125940  0.000000
  1.627030  0.366700  0.000000
  1.631170  0.284620  0.000000
  1.654610  0.169080  0.000000
  1.632070  0.198270  0.000000
  1.607330  0.328120  0.000000
  1.602560  0.410000  0.000000
  1.700280  0.000000  0.000000
  1.675600  0.043300  0.000000
  1.655160  0.082380  0.000000
  1.606810  0.241470  0.000000
  1.630810  0.125620  0.000000
  1.578220  0.366700  0.000000
  1.582990  0.284920  0.000000
  1.604730  0.168150  0.000000
  1.578920  0.210800  0.000000
  1.650920  0.000000  0.000000
  1.559000  0.328320  0.000000
  1.553870  0.410000  0.000000
  1.626430  0.043300  0.000000
  1.606660  0.082260  0.000000
  1.556930  0.242380  0.000000
  1.582820  0.125810  0.000000
  1.529630  0.366700  0.000000
  1.534940  0.284960  0.000000
  1.555320  0.166880  0.000000
  1.601940  0.000000  0.000000
  1.530950  0.199810  0.000000
  1.577650  0.043300  0.000000
  1.510670  0.328200  0.000000
  1.505400  0.410000  0.000000
  1.558080  0.082770  0.000000
  1.534730  0.126670  0.000000
  1.507460  0.243800  0.000000
  1.481280  0.366700  0.000000
  1.486910  0.284640  0.000000
  1.506480  0.166500  0.000000
  1.553350  0.000000  0.000000
  1.529250  0.043300  0.000000
  1.482130  0.200990  0.000000
  1.462240  0.327690  0.000000
  1.457160  0.410000  0.000000
  1.509220  0.083990  0.000000
  1.486020  0.128110  0.000000
  1.458500  0.244760  0.000000
  1.433170  0.366700  0.000000
  1.438620  0.283990  0.000000
  1.458930  0.158770  0.000000
  1.505150  0.000000  0.000000
  1.481250  0.043300  0.000000
  1.434180  0.201480  0.000000
  1.459870  0.085670  0.000000
  1.413590  0.326890  0.000000
  1.409170  0.410000  0.000000
  1.409940  0.244800  0.000000
  1.385300  0.366700  0.000000
  1.389560  0.283370  0.000000
  1.409090  0.158420  0.000000
  1.457350  0.000000  0.000000
  1.433650  0.043300  0.000000
  1.386550  0.201040  0.000000
  1.410050  0.086600  0.000000
  1.364750  0.326450  0.000000
  1.361420  0.410000  0.000000
  1.361460  0.243860  0.000000
  1.337670  0.366700  0.000000
  1.409950  0.000000  0.000000
  1.338650  0.284240  0.000000
  1.386460  0.043300  0.000000
  1.354150  0.119670  0.000000
  1.313920  0.410000  0.000000
  1.316290  0.328550  0.000000
  1.332940  0.164270  0.000000
  1.312360  0.242750  0.000000
  1.362970  0.000000  0.000000
  1.290300  0.366700  0.000000
  1.295390  0.283330  0.000000
  1.339680  0.043300  0.000000
  1.325730  0.078680  0.000000
  1.304410  0.123360  0.000000
  1.266670  0.410000  0.000000
  1.266740  0.323400  0.000000
  1.272670  0.239000  0.000000
  1.283210  0.168120  0.000000
  1.316400  0.000000  0.000000
  1.243180  0.366700  0.000000
  1.246180  0.281190  0.000000
  1.293330  0.043300  0.000000
  1.277840  0.081590  0.000000
  1.256410  0.126460  0.000000
  1.219690  0.410000  0.000000
  1.219750  0.323400  0.000000
  1.233390  0.170720  0.000000
  1.222230  0.237350  0.000000
  1.270260  0.000000  0.000000
  1.196320  0.366700  0.000000
  1.247400  0.043300  0.000000
  1.196390  0.280100  0.000000
  1.229040  0.084940  0.000000
  1.205650  0.129050  0.000000
  1.189490  0.207370  0.000000
  1.172960  0.410000  0.000000
  1.173020  0.323400  0.000000
  1.224540  0.000000  0.000000
  1.181510  0.158020  0.000000
  1.201900  0.043300  0.000000
  1.149720  0.366700  0.000000
  1.179360  0.086600  0.000000
  1.143430  0.291070  0.000000
  1.144660  0.247780  0.000000
  1.126490  0.410000  0.000000
  1.142770  0.189580  0.000000
  1.179250  0.000000  0.000000
  1.134770  0.140320  0.000000
  1.156830  0.043300  0.000000
  1.103400  0.366700  0.000000
  1.100860  0.316520  0.000000
  1.099450  0.268150  0.000000
  1.103580  0.220000  0.000000
  1.080300  0.410000  0.000000
  1.096330  0.172140  0.000000
  1.134410  0.000000  0.000000
  1.100760  0.105310  0.000000
  1.058360  0.324420  0.000000
  1.099400  0.056460  0.000000
  1.059350  0.282410  0.000000
  1.062400  0.233330  0.000000
  1.051490  0.361960  0.000000
  1.062400  0.206670  0.000000
  1.062400  0.140000  0.000000
  1.034380  0.410000  0.000000
  1.090000  0.000000  0.000000
  1.032380  0.305960  0.000000
  1.027830  0.333570  0.000000
  1.033760  0.246670  0.000000
  1.028220  0.281830  0.000000
  1.059860  0.078570  0.000000
  1.030770  0.220170  0.000000
  1.033760  0.193330  0.000000
  1.015410  0.368300  0.000000
  1.056850  0.040910  0.000000
  1.013850  0.293330  0.000000
  1.011380  0.313820  0.000000
  1.013850  0.280000  0.000000
  1.013850  0.266670  0.000000
  1.013850  0.240000  0.000000
  1.012290  0.252000  0.000000
  1.025480  0.152840  0.000000
  1.013850  0.226670  0.000000
  1.028350  0.124560  0.000000
  1.002130  0.333160  0.000000
  1.012290  0.214670  0.000000
  1.013850  0.200000  0.000000
  1.032380  0.094040  0.000000
  1.000000  0.300000  0.000000
  1.012290  0.188000  0.000000
  1.013850  0.173330  0.000000
[...]
POINT_DATA 2042
SCALARS pressure double
LOOKUP_TABLE default
  6.219894
  23.160519
  0.469424
  14.668093
  33.563847
  -0.342510
  27.101538
  19.623167
  43.342630
  40.085697
  -0.010527
  12.949619
  34.527464
  27.576037
  51.720564
  -0.237525
  46.033431
  20.487872
  52.456911
  40.492946
  34.004878
  13.575368
  59.400808
  61.042215
  53.055461
  -0.081963
  27.714148
  62.994638
  46.883224
  40.715741
  20.026143
  65.978362
  72.149401
  59.797828
  78.439720
  79.567190
  34.343212
  -0.122276
  53.552743
  15.838862
  47.495065
  79.032517
  72.635159
  28.804084
  66.486834
  88.177331
  95.743655
  41.742479
  0.080984
  60.317017
  98.652935
  25.307201
  85.711849
  54.366362
  92.471096
  79.240293
  36.804616
  73.039168
  102.146249
  105.660101
  48.480866
  66.937574
  7.355149
  23.527886
  98.444862
  32.363757
  92.139330
  111.340859
  85.761282
  60.954890
  108.167172
  42.891601
  79.465972
  116.843644
  55.033705
  117.974766
  73.422652
  104.737616
  98.296630
  114.534637
  92.164476
  123.686308
  67.341624
  85.841443
  123.962673
  130.019374
  130.528023
  79.673942
  112.113109
  104.758242
  120.469439
  98.289619
  136.726463
  130.417823
  92.081710
  136.937366
  143.408095
  116.876759
  143.110565
  126.951829
  110.845823
  136.732968
  104.498026
  149.934460
  143.065045
  149.801130
  129.716578
  156.312328
  123.466906
  156.222541
  142.464224
  117.293243
  149.614891
  156.231162
  162.342182
  162.062671
  134.689943
  145.900879
  129.608636
  167.946252
  155.867127
  168.526577
  162.864334
  168.738327
  174.174326
  147.031250
  139.477246
  179.347460
  169.058183
  159.223358
  178.794057
  180.440239
  177.159084
  183.036742
  154.143011
  161.259361
  174.879704
  182.729101
  195.351684
  195.728347
  195.853615
  196.640795
  174.031041
  169.563392
  196.358965
  183.610540
  195.497411
  211.540592
  209.637351
  196.385621
  180.857683
  207.413178
  217.936845
  214.716548
  208.480044
  196.636345
  214.133080
  221.710971
  223.125776
  196.570699
  220.550510
  210.987944
  215.738796
  228.908784
  228.052923
  221.610364
  227.486875
  234.070567
  235.105228
  213.228952
  219.415870
  222.784027
  233.699094
  229.114227
  241.409219
  240.002662
  234.723464
  241.333108
  224.604048
  246.439313
  247.653459
  230.069267
  235.027921
  247.088922
  240.440655
  253.999178
  252.670544
  247.624336
  236.072969
  253.771675
  242.081483
  258.865418
  260.344296
  247.235835
  252.846066
  259.666710
  266.429483
  264.975355
  260.055659
  248.123724
  254.289624
  266.217747
  271.343821
  272.596157
  259.369355
  265.601248
  272.435084
  278.704965
  277.428019
  272.540935
  260.637518
  266.719528
  278.227815
  272.143572
  283.745392
  284.899959
  284.463966
  291.081488
  289.928244
  284.304649
  272.910461
  278.278437
  290.941063
  284.002970
  296.441619
  297.295741
  297.589183
  303.255044
  283.438948
  303.132018
  290.205195
  298.784400
  309.276646
  308.770065
  304.836815
  309.731701
  296.463641
  315.333391
  314.513105
  302.697131
  306.235224
  312.168934
  321.368270
  321.571974
  320.623008
  317.587518
  308.804702
  327.527874
  326.994010
  314.326332
  318.249299
  324.076240
  333.157997
  333.944451
  330.430026
  333.599093
  320.418615
  338.704938
  325.506663
  340.028518
  330.758758
  336.831725
  342.765160
  344.050737
  346.469774
  330.610176
  343.596354
  336.778069
  351.258710
  342.900010
  354.735351
  353.748689
  358.249853
  354.441063
  342.628654
  356.955172
  347.519571
  364.067108
  364.587887
  366.709904
  365.467810
  369.503669
  366.840757
  351.249741
  364.749728
  377.241443
  362.111628
  376.739399
  377.091905
  377.602942
  376.601682
  375.681821
  380.122356
  359.747509
  386.489013
  387.235872
  384.670365
  387.217943
  375.480191
  385.785101
  385.357971
  390.551500
  375.664214
  391.573625
  392.148669
  391.333252
  391.208991
  391.318092
  391.687247
  387.812816
  391.333340
  386.975433
  396.123845
  391.774942
  391.062329
  384.482229
  395.818842
  391.445083
  390.961004
  395.546730
  395.503541
  395.471324
  391.661417
  395.447862
  386.047210
  391.103670
  398.172271
  395.403007
  376.860444
  396.905305
  390.665210
  395.390869
  398.557218
  395.347288
  390.683693
  395.356169
  390.683423
  399.597202
  395.384117
  399.161589
  395.347358
  395.286060
  399.394471
  390.676864
  401.430697
  395.152083
  401.418127
  398.960653
  400.762339
  401.490520
  394.967695
  401.774986
  399.666479
  394.827996
  398.835799
  403.249237
  394.174064
  401.525113
  403.055513
  402.693847
  404.211186
  398.687432
  400.246969
  401.521923
  405.241411
  402.827822
  406.799520
  404.528854
  397.868996
  399.155745
  405.498604
  400.868711
  404.432242
  395.666268
  402.654893
  403.970199
  407.104328
  405.091799
  398.338384
  407.007024
  406.556878
  402.124208
  408.022514
  404.157092
  409.302645
  405.444598
  401.161022
  407.287678
  406.631810
  408.344833
  397.357943
  399.272073
  409.404705
  394.021794
  405.043332
  412.419239
  406.491547
  403.994200
  407.783611
  411.307840
  415.524631
  409.017717
  409.855367
  402.207925
  410.896043
  406.037714
  412.217463
  407.834645
  408.958899
  413.735961
  405.325613
  411.167508
  410.545783
  412.241514
  413.230048
  415.525805
  404.204064
  408.914850
  410.400803
  408.010495
  411.637172
  415.147129
  412.743563
  413.760022
  406.722299
  414.761465
  401.752760
  416.019083
  411.727651
  412.858529
  410.575069
  409.384764
  415.091244
  414.379903
  417.208067
  416.049376
  417.091487
  408.180651
  413.119959
  414.386372
  417.734008
  415.488823
  412.079919
  418.894058
  416.668589
  410.559206
  417.634015
  418.418968
  408.303691
  419.598743
  415.752205
  414.633107
  416.983905
  420.167792
  417.968885
  413.524749
  418.885041
  419.943899
  420.889467
  420.939398
  412.694879
  422.209371
  417.194580
  418.337266
  419.427723
  404.913660
  416.202651
  421.226210
  422.729445
  420.562235
  415.423248
  422.471708
  423.561936
  419.715329
  420.800865
  418.701148
  421.813357
  425.050665
  417.757250
  422.785590
  427.306652
  423.810521
  424.843993
  418.516095
  426.134206
  421.217066
  422.324019
  423.343788
  424.209132
  420.262741
  425.100337
  427.036668
  419.639272
  417.368466
  426.021134
  421.162980
  427.457435
  428.584943
  423.694027
  424.726543
  422.738688
  425.760621
  428.875141
  427.327123
  426.698807
  420.774483
  421.655902
  428.686456
  429.377870
  426.229214
  425.254253
  428.083158
  427.300161
  429.020207
  424.443763
  430.647951
  423.750242
  429.891474
  431.137811
  427.658148
  428.671664
  426.791334
  429.624102
  431.208399
  430.609879
  432.919250
  433.172380
  432.516530
  425.684418
  429.092632
  433.786112
  430.214662
  431.211989
  428.370052
  432.021572
  432.948755
  427.706168
  434.802374
  433.736043
  422.754778
  435.076942
  431.636477
  430.690316
  432.587118
  433.569596
  434.393438
  435.040572
  436.534942
  436.855280
  436.849821
  436.399545
  430.033184
  433.047914
  434.007032
  437.680733
  435.146939
  432.445547
  435.967268
  437.622092
  436.856499
  432.076921
  438.527205
  437.621949
  438.956290
  434.620080
  439.419854
  435.622156
  432.600276
  436.516023
  437.508947
  438.306529
  439.274371
  440.465303
  433.992461
  433.332295
  440.697205
  440.266319
  436.982778
  437.946977
  438.927383
  436.468154
  439.837255
  444.572298
  440.783106
  436.332068
  441.979277
  442.434724
  441.743697
  438.659948
  439.592336
  440.470534
  441.413732
  442.223900
  444.349153
  443.160022
  444.045190
  444.710403
  438.907291
  440.929178
  441.881607
  442.828562
  440.521131
  443.765988
  440.368091
  444.684235
  446.063888
  445.948014
  446.887045
  445.661703
  438.071833
  443.414378
  442.612541
  444.270646
  445.195148
  450.091585
  446.122511
  449.379237
  440.394202
  447.080136
  441.716460
  447.963906
  448.814299
  445.816453
  444.997425
  446.745016
  447.658520
  449.639488
  444.077438
  448.602233
  450.819175
  449.562108
  450.767958
  445.597761
  447.336794
  448.183095
  449.080158
  450.026047
  452.147115
  453.078814
  450.942413
  451.885893
  452.765150
  446.552794
  453.319163
  450.511196
  449.742769
  448.920246
  443.943045
  453.775975
  451.578539
  453.585619
  448.366917
  452.483654
  454.695145
  453.498104
  450.263669
  451.992942
  451.251714
  452.967723
  453.894945
  448.551418
  454.854139
  450.021597
  456.840278
  456.038425
  456.631976
  453.513448
  452.678348
  454.471505
  457.686700
  455.342034
  457.316613
  452.041489
  456.384427
  458.542516
  457.375806
  458.096736
  454.941495
  455.892179
  454.386029
  456.868196
  459.734084
  449.911249
  457.776890
  458.659442
  459.697186
  454.280796
  458.683117
  460.520561
  457.401128
  456.589495
  461.468512
  458.345520
  455.572629
  459.200591
  456.224946
  460.205128
  462.387967
  461.255398
  462.075057
  462.960857
  458.833504
  459.725896
  458.307229
  460.738313
  461.591964
  457.713871
  464.691196
  462.561260
  458.212777
  463.599866
  464.447634
  465.384174
  462.043069
  461.251372
  460.440901
  463.072077
  466.253142
  460.002815
  464.094478
  465.748351
  465.015520
  466.787128
  465.982919
  466.890170
  462.600379
  463.581395
  464.379816
  462.116142
  468.130977
  465.580719
  466.395229
  467.502007
  461.781509
  468.313732
  464.924594
  464.102601
  469.242211
  465.901313
  471.673114
  461.750843
  466.912296
  463.760763
  467.966338
  468.867603
  470.468027
  469.872707
  465.146239
  470.794979
  466.414294
  467.275224
  468.240791
  463.416409
  469.286089
  470.193010
  472.600399
  471.182997
  466.076266
  462.933994
  472.148509
  473.083375
  468.761848
  469.643819
  468.174659
  470.731201
  467.829165
  475.878379
  471.811122
  472.518857
  474.688533
  473.731596
  474.683151
  470.267469
  471.116016
  472.080783
  473.130663
  476.683205
  474.059932
  475.038550
  476.045836
  470.459840
  477.024169
  472.585676
  471.727266
  473.484511
  466.857132
  474.554312
  475.322710
  471.512992
  479.204512
  476.577782
  478.460250
  477.412789
  478.500869
  474.021017
  474.946289
  475.871147
  471.914279
  476.923255
  477.887516
  480.519739
  480.293554
  478.890872
  473.337833
  479.907628
  476.390163
  475.492043
  477.320453
  478.357713
  481.330531
  479.191543
  475.111115
  481.339420
  480.187161
  482.450888
  481.210375
  477.888387
  478.761533
  479.709089
  482.718890
  480.613804
  483.370919
  481.692754
  482.725880
  477.149338
  483.768659
  484.567760
  480.200126
  479.283575
  481.146445
  482.112933
  474.062267
  483.039502
  479.133058
  484.035273
  487.647750
  485.617731
  485.082963
  486.241147
  486.298110
  481.569845
  482.572599
  483.543745
  484.469238
  485.514086
  487.718156
  488.420462
  486.538357
  480.919109
  478.378577
  487.595173
  488.434919
  483.977947
  482.961010
  484.966027
  485.952603
  482.729216
  486.865533
  492.062381
  487.853166
  488.813085
  490.462291
  482.212538
  490.175405
  485.361372
  486.376039
  487.374003
  488.232168
  491.343093
  483.779533
  489.361839
  492.997207
  490.377157
  491.397925
  492.269866
  487.790914
  488.785176
  489.792485
  486.492354
  490.681949
  495.883862
  491.715392
  492.679495
  498.535133
  494.230309
  493.431126
  490.186754
  489.112709
  491.197850
  492.086826
  494.867174
  493.236922
  494.186476
  488.491857
  495.013697
  496.076647
  493.168366
  496.003371
  491.604864
  492.590316
  490.691932
  494.521943
  488.955400
  495.548613
  496.304078
  496.538303
  497.759964
  497.264561
  484.428075
  498.188385
  493.043801
  493.982808
  495.825286
  495.014319
  497.048838
  498.038848
  493.181036
  498.994099
  498.985845
  499.738140
  495.379464
  496.384299
  493.951925
  497.458204
  494.478812
  498.368991
  499.433900
  500.352773
  501.007946
  501.468417
  502.148527
  496.803737
  497.763647
  499.624247
  498.806395
  500.970279
  501.891717
  496.691976
  503.364781
  502.734869
  503.521077
  499.144108
  500.152770
  498.196409
  501.254309
  504.624038
  504.806603
  503.340044
  504.198620
  505.717061
  504.941865
  505.596615
  503.566906
  506.452089
  500.501173
  501.511759
  502.586899
  505.166783
  506.032620
  507.664412
  500.286305
  510.159916
  504.637302
  507.232266
  497.722619
  504.538949
  506.785529
  508.196140
  502.856985
  503.899001
  501.888797
  507.380736
  509.623884
  509.448578
  509.029630
  508.705213
  500.861564
  504.227101
  508.377009
  505.238750
  506.304671
  503.065541
  497.918027
  508.040364
  512.424610
  510.621426
  507.894854
  512.020756
  506.560765
  507.613348
  505.556917
  510.875129
  511.349390
  513.902888
  507.306590
  511.826952
  513.200337
  512.277600
  511.453458
  508.944213
  509.975487
  511.134165
  513.364776
  507.906114
  514.326687
  515.406093
  516.943566
  504.030812
  513.800787
  513.516022
  510.378726
  509.882995
  511.275596
  512.299713
  514.474620
  514.644952
  514.190153
  519.218188
  513.429332
  518.190806
  517.655116
  515.865969
  516.887370
  512.691444
  516.947671
  513.583182
  515.152550
  515.437102
  514.504830
  515.484587
  511.674174
  519.421323
  515.196464
  511.066921
  516.048827
  518.971453
  515.707317
  513.297870
  514.930114
  515.742912
  517.140907
  514.821325
  517.113090
  519.441643
  521.187518
  519.025075
  520.604007
  518.276994
  521.557498
  517.604951
  516.328435
  521.093616
  517.455541
  518.296119
  515.445825
  519.486436
  523.087671
  522.548586
  515.836813
  519.353019
  520.765622
  511.954887
  522.178760
  517.387218
  518.568580
  519.385217
  522.281208
  523.661034
  524.897465
  520.546829
  521.664731
  525.064491
  519.084079
  521.170666
  521.577972
  523.058317
  523.294202
  524.766035
  521.109906
  519.934712
  526.228336
  526.950470
  520.947405
  522.749007
  524.164793
  520.660368
  525.855743
  524.799943
  520.945666
  523.865986
  523.042376
  527.312854
  531.095025
  522.855065
  526.632036
  528.986847
  524.959355
  522.703280
  526.365145
  525.189430
  528.424059
  526.010771
  527.299163
  524.775499
  523.017501
  529.932735
  524.578196
  531.491744
  527.085269
  529.551098
  528.328912
  524.459187
  526.825149
  528.196762
  530.973938
  526.496096
  533.872626
  529.575773
  532.662281
  526.244494
  532.436798
  531.255979
  529.428363
  530.703969
  532.127981
  528.481574
  525.289563
  534.376995
  530.317295
  531.698250
  526.423990
  533.511216
  528.176756
  530.454843
  533.270775
  527.921379
  538.646332
  530.405130
  531.294832
  532.954972
  537.546177
  534.621493
  530.130137
  532.315694
  536.132745
  526.812607
  529.834381
  534.111127
  535.949386
  527.727415
  535.760890
  532.037628
  529.238477
  533.389623
  535.569901
  535.248220
  537.074685
  531.808944
  537.962004
  534.350742
  536.797807
  536.159428
  531.416915
  533.964976
  538.238723
  533.761781
  539.340600
  535.692211
  537.398784
  539.696634
  533.443109
  536.580420
  536.149330
  540.080542
  538.431048
  539.386649
  535.733215
  533.497386
  540.653411
  539.498019
  537.473584
  540.692062
  535.466732
  539.612013
  532.299765
  535.431557
  538.701411
  540.346954
  537.741332
  541.882489
  537.427151
  543.112201
  537.134929
  539.742156
  541.575792
  543.276357
  544.946707
  540.854184
  543.146886
  539.420017
  542.589010
  537.140945
  544.302950
  539.061414
  540.846542
  545.034881
  541.644805
  536.789817
  538.688850
  543.599751
  541.469270
  545.858895
  545.552669
  542.910923
  541.104285
  544.730885
  545.988627
  540.766407
  547.184950
  546.712955
  545.907395
  543.955616
  546.702787
  545.841331
  543.097440
  540.319883
  553.300372
  548.309468
  545.068525
  546.698465
  547.949708
  539.794618
  542.787263
  545.044575
  542.544143
  549.135196
  545.864844
  544.989472
  547.958024
  549.118772
  544.779494
  547.120434
  544.507545
  550.360956
  550.561041
  549.080236
  550.285148
  546.710511
  544.675099
  548.170664
  550.121509
  551.627053
  546.470752
  552.180751
  549.243752
  546.406612
  552.844584
  551.341274
  548.621451
  551.922357
  552.830715
  548.449776
  546.394724
  550.201539
  550.033783
  552.433156
  548.220053
  554.076908
  554.606768
  551.324392
  553.236920
  547.805210
  554.125526
  547.013482
  550.400360
  555.315672
  550.177298
  552.380361
  556.431399
  559.580818
  554.611178
  556.416383
  550.128935
  552.185400
  557.627303
  553.486695
  555.523731
  556.498655
  552.129398
  551.792197
  556.670334
  554.277365
  557.813682
  558.406462
  554.101191
  556.735190
  555.581148
  552.432972
  554.054546
  557.718620
  559.008654
  553.836093
  560.737816
  560.130800
  554.045184
  556.546144
  555.877493
  558.827570
  555.018777
  557.674901
  555.746876
  550.187649
  560.025305
  565.397435
  557.652470
  561.507152
  562.522106
  561.078980
  560.627419
  558.663243
  562.898667
  561.059283
  557.690720
  556.222638
  562.753898
  559.838428
  561.920851
  557.758573
  564.846607
  557.432861
  564.050977
  559.675062
  560.972898
  563.027118
  559.431303
  566.164990
  564.186669
  565.118490
  561.962717
  558.238697
  564.057686
  566.190232
  561.447825
  566.653714
  565.746114
  559.710349
  561.332827
  562.711110
  564.906556
  567.737547
  561.178896
  563.766018
  561.228904
  567.734362
  566.167403
  563.208705
  567.543373
  563.016190
  564.782730
  567.245124
  568.949516
  568.243481
  569.767818
  565.037245
  565.677506
  568.356006
  570.322387
  564.949533
  563.727604
  569.931115
  560.496073
  564.663833
  566.779021
  571.544334
  569.480405
  564.701879
  571.461991
  567.827856
  567.036982
  571.260838
  570.651042
  571.351468
  566.609331
  572.636686
  565.074006
  568.940533
  573.605143
  568.900223
  571.751786
  565.846391
  572.273731
  574.024314
  570.016506
  568.563625
  572.728362
  561.661832
  573.812236
  568.212203
  575.766472
  568.047958
  575.160583
  571.188004
  573.124898
  573.940714
  570.498566
  576.742922
  574.657374
  572.245030
  570.218292
  576.333855
  577.677169
  576.060043
  572.858532
  573.208590
  577.951631
  569.853560
  576.136693
  572.182124
  573.068784
  579.189977
  574.364388
  576.940505
  571.964793
  577.838228
  571.866756
  578.862786
  575.117784
  574.222639
  580.401706
  578.151997
  573.883250
  579.960499
  576.426216
  581.604962
  579.154864
  576.510583
  568.977664
  581.429780
  576.306111
  575.853692
  580.255257
  573.433130
  577.499746
  581.023727
  580.175211
  584.252521
  578.457236
  575.238524
  582.520695
  581.246650
  577.739028
  576.809804
  584.124846
  579.711269
  573.313731
  583.538863
  582.217694
  578.106709
  585.710912
  580.517206
  579.206695
  585.126656
  580.517194
  580.017050
  576.102701
  583.484755
  584.576963
  584.544098
  581.628251
  587.941805
  584.308536
  578.805989
  586.141363
  582.607830
  580.468741
  581.562261
  585.418564
  587.792685
  572.716157
  590.135157
  587.110174
  589.426392
  583.330716
  583.969139
  582.477197
  586.373678
  588.752497
  580.431131
  584.854606
  590.603555
  588.222476
  584.885877
  587.680504
  590.875655
  584.642033
  583.022694
  585.731278
  589.724900
  588.460611
  591.146787
  584.314043
  588.565719
  586.932011
  589.412813
  586.068328
  590.889255
  586.779376
  593.952899
  592.996593
  592.346105
  587.875786
  585.302201
  590.643654
  588.891139
  587.591974
  591.475158
  588.815060
  588.282018
  595.935046
  586.966148
  593.300402
  592.429811
  594.864956
  589.985387
  592.618433
  587.488406
  589.168879
  589.839220
  590.944050
  590.501115
  594.288988
  597.356739
  593.367484
  588.415778
  595.922240
  592.131722
  597.842269
  594.304335
  591.443257
  592.007627