# vtk DataFile Version 2.0
FSI_Simulation
ASCII

DATASET UNSTRUCTURED_GRID
POINTS 2042 double
  2.500000  0.410000  0.000000
  2.450000  0.410000  0.000000
  2.500000  0.358750  0.000000
  2.455000  0.345150  0.000000
  2.400000  0.410000  0.000000
  2.500000  0.307500  0.000000
  2.409170  0.352960  0.000000
  2.425000  0.303110  0.000000
  2.350000  0.410000  0.000000
  2.359860  0.354270  0.000000
  2.500000  0.256250  0.000000
  2.450000  0.259810  0.000000
  2.375000  0.303110  0.000000
  2.400000  0.259810  0.000000
  2.300000  0.410000  0.000000
  2.500000  0.205000  0.000000
  2.325000  0.303110  0.000000
  2.425000  0.216510  0.000000
  2.300000  0.346410  0.000000
  2.350000  0.259810  0.000000
  2.375000  0.216510  0.000000
  2.450000  0.173210  0.000000
  2.275000  0.303110  0.000000
  2.250000  0.410000  0.000000
  2.300000  0.259810  0.000000
  2.500000  0.153750  0.000000
  2.400000  0.173210  0.000000
  2.250000  0.346410  0.000000
  2.325000  0.216510  0.000000
  2.350000  0.173210  0.000000
  2.429170  0.133880  0.000000
  2.250000  0.259810  0.000000
  2.225000  0.303110  0.000000
  2.275000  0.216510  0.000000
  2.200000  0.410000  0.000000
  2.197270  0.363510  0.000000
  2.375000  0.129900  0.000000
  2.500000  0.102500  0.000000
  2.300000  0.173210  0.000000
  2.450000  0.086600  0.000000
  2.325000  0.129900  0.000000
  2.200000  0.259810  0.000000
  2.225000  0.216510  0.000000
  2.400000  0.086600  0.000000
  2.250000  0.173210  0.000000
  2.170490  0.306770  0.000000
  2.150000  0.410000  0.000000
  2.350000  0.086600  0.000000
  2.500000  0.051250  0.000000
  2.275000  0.129900  0.000000
  2.135420  0.358250  0.000000
  2.429170  0.044630  0.000000
  2.175000  0.216510  0.000000
  2.300000  0.086600  0.000000
  2.150000  0.259810  0.000000
  2.200000  0.173210  0.000000
  2.375000  0.043300  0.000000
  2.225000  0.129900  0.000000
  2.112500  0.313250  0.000000
  2.100000  0.410000  0.000000
  2.325000  0.043300  0.000000
  2.250000  0.086600  0.000000
  2.500000  0.000000  0.000000
  2.450000  0.000000  0.000000
  2.125000  0.216510  0.000000
  2.400000  0.000000  0.000000
  2.150000  0.173210  0.000000
  2.075000  0.366700  0.000000
  2.175000  0.129900  0.000000
  2.275000  0.043300  0.000000
  2.087500  0.269950  0.000000
  2.350000  0.000000  0.000000
  2.200000  0.086600  0.000000
  2.050000  0.410000  0.000000
  2.300000  0.000000  0.000000
  2.050000  0.323400  0.000000
  2.225000  0.043300  0.000000
  2.100000  0.173210  0.000000
  2.125000  0.129900  0.000000
  2.062500  0.226650  0.000000
  2.150000  0.086600  0.000000
  2.025000  0.366700  0.000000
  2.250000  0.000000  0.000000
  2.175000  0.043300  0.000000
  2.025000  0.280100  0.000000
  2.000000  0.410000  0.000000
  2.000000  0.323400  0.000000
  2.200000  0.000000  0.000000
  2.070830  0.133290  0.000000
  2.100000  0.086600  0.000000
  2.037500  0.183350  0.000000
  2.125000  0.043300  0.000000
  1.975000  0.366700  0.000000
  2.000000  0.236790  0.000000
  2.150000  0.000000  0.000000
  1.975000  0.280100  0.000000
  1.950000  0.410000  0.000000
  2.050000  0.086600  0.000000
  1.950000  0.323400  0.000000
  2.012500  0.140050  0.000000
  2.075000  0.043300  0.000000
  1.975000  0.193490  0.000000
  2.100000  0.000000  0.000000
  1.925000  0.366700  0.000000
  1.950000  0.236790  0.000000
  1.925000  0.280100  0.000000
  2.000000  0.086600  0.000000
  1.900000  0.410000  0.000000
  2.025000  0.043300  0.000000
  1.900000  0.323400  0.000000
  1.950000  0.150190  0.000000
  2.050000  0.000000  0.000000
  1.925000  0.193490  0.000000
  1.900000  0.236790  0.000000
  1.875000  0.366700  0.000000
  1.875000  0.280100  0.000000
  1.975000  0.043300  0.000000
  1.937500  0.096750  0.000000
  2.000000  0.000000  0.000000
  1.850000  0.410000  0.000000
  1.902380  0.145780  0.000000
  1.850000  0.323400  0.000000
  1.875000  0.193490  0.000000
  1.850000  0.236790  0.000000
  1.820830  0.365370  0.000000
  1.925000  0.043300  0.000000
  1.950000  0.000000  0.000000
  1.800000  0.410000  0.000000
  1.850000  0.150190  0.000000
  1.877180  0.088810  0.000000
  1.810710  0.280600  0.000000
  1.800000  0.323400  0.000000
  1.820830  0.195410  0.000000
  1.800000  0.236790  0.000000
  1.900000  0.000000  0.000000
  1.875360  0.035430  0.000000
  1.825000  0.106890  0.000000
  1.800000  0.150190  0.000000
  1.750000  0.410000  0.000000
  1.750000  0.358750  0.000000
  1.750000  0.307500  0.000000
  1.750000  0.256250  0.000000
  1.825000  0.043300  0.000000
  1.850000  0.000000  0.000000
  1.750000  0.205000  0.000000
  1.793300  0.076870  0.000000
  1.750000  0.153750  0.000000
  1.700640  0.410000  0.000000
  1.704300  0.327190  0.000000
  1.750000  0.102500  0.000000
  1.800000  0.000000  0.000000
  1.706240  0.242410  0.000000
  1.676060  0.366700  0.000000
  1.679550  0.284150  0.000000
  1.704500  0.168810  0.000000
  1.750000  0.051250  0.000000
  1.682040  0.198780  0.000000
  1.655740  0.327710  0.000000
  1.651490  0.410000  0.000000
  1.750000  0.000000  0.000000
  1.656690  0.241750  0.000000
  1.703750  0.082910  0.000000
  1.678980  0.125940  0.000000
  1.627030  0.366700  0.000000
  1.631170  0.284620  0.000000
  1.654610  0.169080  0.000000
  1.632070  0.198270  0.000000
  1.607330  0.328120  0.000000
  1.602560  0.410000  0.000000
  1.700280  0.000000  0.000000
  1.675600  0.043300  0.000000
  1.655160  0.082380  0.000000
  1.606810  0.241470  0.000000
  1.630810  0.125620  0.000000
  1.578220  0.366700  0.000000
  1.582990  0.284920  0.000000
  1.604730  0.168150  0.000000
  1.578920  0.210800  0.000000
  1.650920  0.000000  0.000000
  1.559000  0.328320  0.000000
  1.553870  0.410000  0.000000
  1.626430  0.043300  0.000000
  1.606660  0.082260  0.000000
  1.556930  0.242380  0.000000
  1.582820  0.125810  0.000000
  1.529630  0.366700  0.000000
  1.534940  0.284960  0.000000
  1.555320  0.166880  0.000000
  1.601940  0.000000  0.000000
  1.530950  0.199810  0.000000
  1.577650  0.043300  0.000000
  1.510670  0.328200  0.000000
  1.505400  0.410000  0.000000
  1.558080  0.082770  0.000000
  1.534730  0.126670  0.000000
  1.507460  0.243800  0.000000
  1.481280  0.366700  0.000000
  1.486910  0.284640  0.000000
  1.506480  0.166500  0.000000
  1.553350  0.000000  0.000000
  1.529250  0.043300  0.000000
  1.482130  0.200990  0.000000
  1.462240  0.327690  0.000000
  1.457160  0.410000  0.000000
  1.509220  0.083990  0.000000
  1.486020  0.128110  0.000000
  1.458500  0.244760  0.000000
  1.433170  0.366700  0.000000
  1.438620  0.283990  0.000000
  1.458930  0.158770  0.000000
  1.505150  0.000000  0.000000
  1.481250  0.043300  0.000000
  1.434180  0.201480  0.000000
  1.459870  0.085670  0.000000
  1.413590  0.326890  0.000000
  1.409170  0.410000  0.000000
  1.409940  0.244800  0.000000
  1.385300  0.366700  0.000000
  1.389560  0.283370  0.000000
  1.409090  0.158420  0.000000
  1.457350  0.000000  0.000000
  1.433650  0.043300  0.000000
  1.386550  0.201040  0.000000
  1.410050  0.086600  0.000000
  1.364750  0.326450  0.000000
  1.361420  0.410000  0.000000
  1.361460  0.243860  0.000000
  1.337670  0.366700  0.000000
  1.409950  0.000000  0.000000
  1.338650  0.284240  0.000000
  1.386460  0.043300  0.000000
  1.354150  0.119670  0.000000
  1.313920  0.410000  0.000000
  1.316290  0.328550  0.000000
  1.332940  0.164270  0.000000
  1.312360  0.242750  0.000000
  1.362970  0.000000  0.000000
  1.290300  0.366700  0.000000
  1.295390  0.283330  0.000000
  1.339680  0.043300  0.000000
  1.325730  0.078680  0.000000
  1.304410  0.123360  0.000000
  1.266670  0.410000  0.000000
  1.266740  0.323400  0.000000
  1.272670  0.239000  0.000000
  1.283210  0.168120  0.000000
  1.316400  0.000000  0.000000
  1.243180  0.366700  0.000000
  1.246180  0.281190  0.000000
  1.293330  0.043300  0.000000
  1.277840  0.081590  0.000000
  1.256410  0.126460  0.000000
  1.219690  0.410000  0.000000
  1.219750  0.323400  0.000000
  1.233390  0.170720  0.000000
  1.222230  0.237350  0.000000
  1.270260  0.000000  0.000000
  1.196320  0.366700  0.000000
  1.247400  0.043300  0.000000
  1.196390  0.280100  0.000000
  1.229040  0.084940  0.000000
  1.205650  0.129050  0.000000
  1.189490  0.207370  0.000000
  1.172960  0.410000  0.000000
  1.173020  0.323400  0.000000
  1.224540  0.000000  0.000000
  1.181510  0.158020  0.000000
  1.201900  0.043300  0.000000
  1.149720  0.366700  0.000000
  1.179360  0.086600  0.000000
  1.143430  0.291070  0.000000
  1.144660  0.247780  0.000000
  1.126490  0.410000  0.000000
  1.142770  0.189580  0.000000
  1.179250  0.000000  0.000000
  1.134770  0.140320  0.000000
  1.156830  0.043300  0.000000
  1.103400  0.366700  0.000000
  1.100860  0.316520  0.000000
  1.099450  0.268150  0.000000
  1.103580  0.220000  0.000000
  1.080300  0.410000  0.000000
  1.096330  0.172140  0.000000
  1.134410  0.000000  0.000000
  1.100760  0.105310  0.000000
  1.058360  0.324420  0.000000
  1.099400  0.056460  0.000000
  1.059350  0.282410  0.000000
  1.062400  0.233330  0.000000
  1.051490  0.361960  0.000000
  1.062400  0.206670  0.000000
  1.062400  0.140000  0.000000
  1.034380  0.410000  0.000000
  1.090000  0.000000  0.000000
  1.032380  0.305960  0.000000
  1.027830  0.333570  0.000000
  1.033760  0.246670  0.000000
  1.028220  0.281830  0.000000
  1.059860  0.078570  0.000000
  1.030770  0.220170  0.000000
  1.033760  0.193330  0.000000
  1.015410  0.368300  0.000000
  1.056850  0.040910  0.000000
  1.013850  0.293330  0.000000
  1.011380  0.313820  0.000000
  1.013850  0.280000  0.000000
  1.013850  0.266670  0.000000
  1.013850  0.240000  0.000000
  1.012290  0.252000  0.000000
  1.025480  0.152840  0.000000
  1.013850  0.226670  0.000000
  1.028350  0.124560  0.000000
  1.002130  0.333160  0.000000
  1.012290  0.214670  0.000000
  1.013850  0.200000  0.000000
  1.032380  0.094040  0.000000
  1.000000  0.300000  0.000000
  1.012290  0.188000  0.000000
  1.013850  0.173330  0.000000
[...]
POINT_DATA 2042
SCALARS pressure double
LOOKUP_TABLE default
  0.221406
  0.136877
  -0.058602
  0.080059
  0.434104
  0.157734
  0.296453
  0.086654
  0.040891
  0.226523
  0.019076
  0.054151
  0.176733
  0.130243
  -0.152018
  -0.073067
  0.263833
  0.093122
  0.080035
  0.254303
  0.201111
  0.097147
  0.434145
  0.682024
  0.341800
  0.047054
  0.182023
  0.377078
  0.282793
  0.263225
  0.153065
  0.322893
  0.314735
  0.324766
  0.570274
  0.567124
  0.250713
  -0.010191
  0.320046
  0.168100
  0.310730
  0.411036
  0.429451
  0.283147
  0.395925
  0.592528
  0.325324
  0.322558
  -0.037189
  0.367037
  0.487950
  0.327179
  0.469939
  0.371613
  0.501580
  0.435654
  0.350721
  0.408706
  0.537565
  0.661977
  0.356390
  0.412841
  -0.187145
  0.214459
  0.555178
  0.316804
  0.496522
  0.681623
  0.467576
  0.390632
  0.532739
  0.349477
  0.468850
  0.689100
  0.382155
  0.693022
  0.431835
  0.547397
  0.512492
  0.601164
  0.516214
  0.697324
  0.431378
  0.472545
  0.631865
  0.698001
  0.703780
  0.472804
  0.564233
  0.559338
  0.604782
  0.513713
  0.699882
  0.664987
  0.524936
  0.659134
  0.735705
  0.602273
  0.728276
  0.620659
  0.552825
  0.664835
  0.562039
  0.737096
  0.701413
  0.704344
  0.623708
  0.838157
  0.592108
  0.755385
  0.678935
  0.598664
  0.703146
  0.737789
  0.807436
  0.726651
  0.586263
  0.723986
  0.603173
  0.912663
  0.731470
  0.763954
  0.754089
  0.751055
  0.718999
  0.679724
  0.498370
  0.560915
  0.787827
  0.718629
  0.800196
  0.832385
  0.748467
  0.789376
  1.076230
  0.900345
  0.776705
  0.797322
  0.635635
  0.721547
  0.797321
  0.820670
  0.770289
  0.834889
  0.863626
  0.827408
  0.828424
  0.925759
  0.858091
  0.808551
  0.594341
  0.871197
  1.011498
  0.932046
  0.872697
  0.707749
  0.914402
  0.958709
  0.981572
  0.644274
  0.933629
  0.878948
  0.938590
  1.024111
  0.987362
  0.947117
  0.982604
  1.010378
  1.019323
  0.913672
  1.008582
  0.964345
  0.993890
  1.000454
  1.040246
  1.019787
  1.001608
  1.023713
  0.978055
  1.053400
  1.061466
  1.021623
  1.013229
  1.048550
  1.032110
  1.077241
  1.061122
  1.042227
  1.025495
  1.068028
  1.043376
  1.097488
  1.102250
  1.055301
  1.075728
  1.088200
  1.110196
  1.096529
  1.078787
  1.076564
  1.079790
  1.107103
  1.137191
  1.140212
  1.097044
  1.124742
  1.130192
  1.145613
  1.135320
  1.110457
  1.112703
  1.105786
  1.142365
  1.156019
  1.174827
  1.173032
  1.175986
  1.179989
  1.173872
  1.154059
  1.136105
  1.122777
  1.184478
  1.164643
  1.212526
  1.198065
  1.221705
  1.202714
  1.213453
  1.224003
  1.177465
  1.212727
  1.246995
  1.246437
  1.236610
  1.256634
  1.212697
  1.253470
  1.248039
  1.196519
  1.267397
  1.246168
  1.292669
  1.278931
  1.297783
  1.262972
  1.267360
  1.279504
  1.286932
  1.243418
  1.305200
  1.301141
  1.335953
  1.339165
  1.316340
  1.307824
  1.360566
  1.315953
  1.274582
  1.351746
  1.349389
  1.282365
  1.318488
  1.467279
  1.360156
  1.476159
  1.364772
  1.378217
  1.374490
  1.284451
  1.395929
  1.398700
  1.504097
  1.376956
  1.596354
  1.456885
  1.212556
  1.334980
  1.425951
  1.409279
  1.415260
  1.244616
  1.387589
  1.252278
  1.408792
  1.490735
  1.173639
  1.467088
  1.503721
  1.406958
  1.488435
  1.391596
  1.530911
  1.267705
  1.495600
  1.508071
  1.525642
  1.534905
  1.401037
  1.537977
  1.509961
  1.462028
  1.050812
  1.578676
  1.557743
  1.574621
  1.568646
  1.564101
  1.569500
  1.507703
  1.565101
  1.464587
  1.683807
  1.562396
  1.546055
  1.367525
  1.592103
  1.535705
  1.532226
  1.591699
  1.592532
  1.591941
  1.542177
  1.590647
  1.252649
  1.534448
  1.629795
  1.588947
  1.091295
  1.614250
  1.526713
  1.586887
  1.605902
  1.579661
  1.519910
  1.572276
  1.502814
  1.619186
  1.568275
  1.615818
  1.567793
  1.567178
  1.614935
  1.432844
  1.614862
  1.561886
  1.627166
  1.606843
  1.625734
  1.630213
  1.552651
  1.585670
  1.608429
  1.527077
  1.597489
  1.632078
  1.520813
  1.626530
  1.640306
  1.637371
  1.610534
  1.590369
  1.606948
  1.619610
  1.652899
  1.633421
  1.631459
  1.649674
  1.566610
  1.588619
  1.655444
  1.610574
  1.647668
  1.549629
  1.626855
  1.639571
  1.672307
  1.650642
  1.565763
  1.666398
  1.662663
  1.617691
  1.670242
  1.637161
  1.682661
  1.649056
  1.599342
  1.666995
  1.660245
  1.675103
  1.677494
  1.598398
  1.683603
  1.464967
  1.642417
  1.785594
  1.655847
  1.632341
  1.667526
  1.698287
  1.886205
  1.678201
  1.685093
  1.599998
  1.692962
  1.648896
  1.700926
  1.665335
  1.675189
  1.742658
  1.643413
  1.693837
  1.688334
  1.701714
  1.709810
  1.767393
  1.641089
  1.673224
  1.685486
  1.665941
  1.695662
  1.720149
  1.704501
  1.711797
  1.654518
  1.719248
  1.788781
  1.725204
  1.695537
  1.704296
  1.686295
  1.679393
  1.721202
  1.715911
  1.717809
  1.727380
  1.734998
  1.679607
  1.706605
  1.715814
  1.663429
  1.723968
  1.699667
  1.741365
  1.732414
  1.700128
  1.738680
  1.743298
  1.622243
  1.749180
  1.726655
  1.719537
  1.735174
  1.714741
  1.741946
  1.713086
  1.747860
  1.754029
  1.800538
  1.758486
  1.749619
  1.765582
  1.738736
  1.745908
  1.752968
  1.730604
  1.736488
  1.763638
  1.766723
  1.760316
  1.744097
  1.770441
  1.773984
  1.757120
  1.763728
  1.752923
  1.770004
  1.783954
  1.751498
  1.775501
  1.762873
  1.780744
  1.784987
  1.826161
  1.789193
  1.770082
  1.775924
  1.781961
  1.786662
  1.770316
  1.790841
  1.796267
  1.790360
  1.744502
  1.794718
  1.776229
  1.800451
  1.819813
  1.787052
  1.793106
  1.785529
  1.798867
  1.819073
  1.805252
  1.803559
  1.812681
  1.830809
  1.812096
  1.813661
  1.805407
  1.799214
  1.814901
  1.811239
  1.818619
  1.801272
  1.818576
  1.774137
  1.821195
  1.826970
  1.816939
  1.822631
  1.811150
  1.827358
  1.832518
  1.831767
  1.841623
  1.759019
  1.837427
  1.808137
  1.828109
  1.840754
  1.835290
  1.840388
  1.826453
  1.843777
  1.846724
  1.815751
  1.843618
  1.848339
  1.747779
  1.852740
  1.846702
  1.841079
  1.851980
  1.856607
  1.859273
  1.860194
  1.850556
  1.854526
  1.860988
  1.864173
  1.838525
  1.858436
  1.863716
  1.843752
  1.869794
  1.851539
  1.873067
  1.798352
  1.875050
  1.843319
  1.854179
  1.875969
  1.877707
  1.872353
  1.842729
  1.876558
  1.864453
  1.881689
  1.886060
  1.888231
  1.890305
  1.879762
  1.855192
  1.942671
  1.885163
  1.891413
  1.888120
  1.893536
  1.898315
  1.887789
  1.902256
  1.780451
  1.903936
  1.884041
  1.899089
  1.883238
  1.904730
  1.903616
  1.906847
  1.911740
  1.915691
  1.917679
  1.882223
  1.919091
  1.917789
  1.905924
  1.888425
  1.918894
  1.923481
  1.928028
  1.916600
  1.932307
  1.910256
  1.933310
  1.922418
  1.927999
  1.916132
  1.933767
  1.923207
  1.935558
  1.932121
  1.940856
  1.944772
  1.964876
  1.947543
  1.930826
  1.927933
  1.948796
  1.903502
  1.946034
  1.934959
  1.953460
  1.947313
  1.958026
  1.962764
  1.952343
  1.953583
  1.963195
  1.945286
  1.963885
  1.954514
  1.955962
  1.965971
  1.970640
  1.975068
  1.978141
  2.081661
  1.958101
  1.978941
  1.974014
  1.959959
  1.966125
  1.964646
  1.987107
  1.983261
  1.980628
  2.059675
  1.974843
  1.994344
  1.980428
  1.982358
  1.993836
  1.962212
  1.994217
  1.992862
  2.000022
  1.995371
  2.005845
  2.009605
  2.022165
  2.010037
  1.993061
  1.957528
  2.006718
  1.999712
  2.011585
  2.006847
  2.018128
  1.996381
  2.025207
  1.914329
  2.012027
  2.025319
  1.982892
  2.026123
  2.014837
  2.021792
  2.029426
  2.019898
  2.037720
  1.963183
  2.019988
  2.041853
  2.042290
  2.036440
  2.038422
  1.963549
  2.024961
  2.039728
  2.035645
  2.022234
  2.048539
  2.089455
  2.058706
  2.037039
  2.057456
  2.028822
  2.059525
  2.045756
  2.033284
  2.049157
  2.057935
  2.048966
  2.070023
  2.076304
  2.066154
  2.023427
  2.075415
  2.053134
  2.068546
  2.054387
  2.041171
  2.077725
  2.066421
  2.060563
  2.094056
  2.050704
  2.063146
  2.092485
  1.866954
  2.092634
  2.048185
  2.075698
  2.060428
  2.074014
  2.085482
  2.101136
  2.069053
  2.043129
  2.115585
  2.111205
  2.101358
  2.067880
  2.081631
  2.090241
  2.081410
  2.065537
  2.107300
  1.890214
  2.115430
  2.130766
  2.079313
  2.130523
  2.129355
  2.062775
  2.105464
  2.081985
  2.085439
  2.095846
  2.110620
  2.133776
  2.081600
  2.155994
  2.150252
  2.073295
  2.132984
  2.094445
  2.100400
  2.108564
  2.086515
  2.113576
  2.134589
  2.098160
  2.169011
  2.092700
  2.084791
  2.175662
  2.164288
  2.075083
  2.134887
  2.111622
  2.117216
  2.134927
  2.164941
  2.201787
  2.090704
  2.191202
  2.167031
  2.133325
  2.110307
  2.108509
  2.134263
  2.118833
  2.160797
  2.107141
  2.206251
  2.218737
  2.112985
  2.089989
  2.204388
  2.091250
  2.160944
  2.130409
  2.133723
  2.155815
  2.194161
  2.103808
  2.245955
  2.233838
  2.174149
  2.075522
  2.198077
  2.112611
  2.154639
  2.150626
  2.130017
  2.182417
  2.238216
  2.121099
  2.264594
  2.124300
  2.014835
  2.238545
  2.089459
  2.186029
  2.145455
  2.172003
  2.216383
  2.146403
  2.283896
  2.065796
  2.273564
  2.230024
  2.123348
  2.171095
  2.121437
  2.161203
  2.136136
  2.198477
  2.260093
  2.113116
  2.307789
  2.130472
  2.270999
  2.101641
  2.137573
  2.206634
  2.120334
  2.160550
  2.152438
  2.181544
  2.232297
  2.306450
  2.312205
  2.126571
  2.120354
  2.252632
  2.124382
  2.115872
  2.183057
  2.145104
  2.167604
  2.134463
  2.205509
  2.275688
  2.128642
  2.331831
  2.156836
  2.301516
  2.219189
  2.128512
  2.123249
  2.163446
  2.151982
  2.184051
  2.235164
  2.322935
  2.131220
  2.115521
  2.333920
  2.149930
  2.267325
  2.186957
  2.146466
  2.164434
  2.204742
  2.269401
  2.133802
  2.355273
  2.068843
  2.304457
  2.220529
  1.884099
  2.128240
  2.159682
  2.178870
  2.149478
  2.229436
  2.319174
  2.126894
  2.337448
  2.258436
  2.131203
  2.173453
  2.129588
  2.258551
  2.139143
  2.162743
  2.192207
  2.141384
  2.343748
  2.125532
  2.290142
  2.083205
  2.196234
  2.125246
  2.143285
  2.082963
  2.121464
  2.150764
  2.168123
  2.294068
  2.204712
  2.307254
  2.223988
  2.143188
  2.107185
  2.142589
  2.119251
  2.153442
  2.170036
  2.142256
  2.211414
  2.142887
  2.320541
  2.240582
  2.152745
  2.113177
  2.108815
  2.106916
  2.141885
  2.150317
  2.216576
  2.167188
  2.282220
  2.141616
  2.139543
  2.106241
  2.088723
  2.094396
  2.138508
  2.141520
  2.135441
  2.138407
  2.105380
  2.148496
  2.112364
  2.056997
  2.109389
  2.073450
  2.090893
  2.172480
  2.151738
  2.130656
  2.125246
  2.126336
  2.119066
  2.031911
  2.123407
  2.134807
  2.192060
  2.077764
  2.072838
  2.151935
  2.084481
  1.960403
  2.095235
  2.124656
  2.100386
  2.130517
  1.966244
  2.109318
  2.076787
  2.022856
  1.942791
  2.127863
  2.122597
  1.936697
  2.105074
  2.047185
  2.124714
  2.126438
  1.932845
  2.124394
  2.053130
  1.964285
  2.089208
  2.110320
  2.073691
  2.129138
  1.786458
  1.799084
  2.108897
  2.116049
  1.721167
  2.066083
  1.906987
  1.765082
  2.084094
  2.019689
  1.822175
  1.976905
  2.133233
  2.033457
  2.091259
  2.114235
  2.141369
  1.601762
  1.617611
  2.099921
  2.124483
  2.047896
  1.921066
  1.654722
  1.777788
  1.594057
  2.142104
  1.633380
  2.227935
  2.109084
  1.901122
  2.064169
  2.070448
  1.998563
  1.989611
  1.610984
  1.623692
  1.809404
  1.639721
  2.126576
  2.103823
  1.636156
  2.142669
  1.716990
  2.099101
  1.736997
  2.116382
  2.035970
  1.925384
  1.784721
  2.095335
  1.822125
  1.964275
  2.138959
  1.857026
  2.080782
  1.821175
  2.151324
  1.861082
  2.071054
  2.045190
  1.991858
  1.846170
  2.135768
  1.872764
  2.129015
  2.108750
  2.164184
  1.889397
  1.889846
  2.134235
  2.006274
  2.123042
  2.045553
  1.949608
  1.957051
  2.083840
  2.186384
  1.893457
  1.924577
  2.168849
  2.102365
  1.926492
  1.919663
  1.939624
  1.932996
  2.063282
  2.016102
  2.142578
  2.124545
  2.185430
  2.081974
  1.942948
  1.996951
  2.173135
  2.041653
  1.974881
  2.129247
  1.980015
  1.998935
  2.107414
  2.118156
  2.063978
  2.009391
  2.190023
  1.984859
  2.109677
  1.988609
  1.997675
  2.087127
  1.997951
  1.990713
  2.051640
  2.150741
  2.143737
  2.098848
  2.229390
  2.016946
  2.062371
  1.998832
  2.131565
  2.044031
  2.053277
  2.129203
  2.089396
  2.300042
  2.009462
  2.199256
  2.125435
  2.176954
  2.063202
  2.060509
  2.056641
  2.117292
  2.085170
  2.226944
  2.235871
  2.082076
  2.069988
  2.145899
  2.162074
  2.120618
  2.076606
  2.095097
  2.150564
  2.383868
  2.093520
  2.087371
  2.085031
  2.303710
  2.156478
  2.116807
  2.101440
  2.198472
  2.241622
  2.147011
  2.095775
  2.193792
  2.154096
  2.158045
  2.115964
  2.152268
  2.102787
  2.113701
  2.116981
  2.185668
  2.145214
  2.200864
  2.115070
  2.131950
  2.114328
  2.167394
  2.113828
  2.192251
  2.146792
  2.137321
  2.118923
  2.115058
  2.200817
  2.167125
  2.131785
  2.126976
  2.210274
  2.134306
  2.184975
  2.150520
  2.196833
  2.199306
  2.163209
  2.135631
  2.210223
  2.171122
  2.162235
  2.192543
  2.193032
  2.135647
  2.163787
  2.154224
  2.215190
  2.176313
  2.252392
  2.191493
  2.152659
  2.157458
  2.239662
  2.376844
  2.178908
  2.216862
  2.183413
  2.183709
  2.214279
  2.243252
  2.198830
  2.176915
  2.262400
  2.185723
  2.208755
  2.203290
  2.211114
  2.187208
  2.259203
  2.259153
  2.187065
  2.207250
  2.234615
  2.291389
  2.214788
  2.272136
  2.264987
  2.248090
  2.204050
  2.266168
  2.273539
  2.218720
  2.225825
  2.363915
  2.291014
  2.231448
  2.282336
  2.279442
  2.153135
  2.224107
  2.222250
  2.231320
  2.288890
  2.237261
  2.231099
  2.294295
  2.291904
  2.236811
  2.242648
  2.236569
  2.301945
  2.295624
  2.299330
  2.287933
  2.250623
  2.243695
  2.255967
  2.310125
  2.318216
  2.250928
  2.316836
  2.280270
  2.243890
  2.321466
  2.314446
  2.267757
  2.319029
  2.342096
  2.265165
  2.252204
  2.285718
  2.280487
  2.322632
  2.261463
  2.336152
  2.328350
  2.291310
  2.337238
  2.250360
  2.337564
  2.242735
  2.281659
  2.366131
  2.279694
  2.304390
  2.327483
  2.331164
  2.341962
  2.347972
  2.271716
  2.299818
  2.319530
  2.320815
  2.367972
  2.377419
  2.300258
  2.286198
  2.384596
  2.325459
  2.372831
  2.350196
  2.320654
  2.403766
  2.323231
  2.273936
  2.321953
  2.422635
  2.393786
  2.310936
  2.351429
  2.383764
  2.296543
  2.344470
  2.343441
  2.438742
  2.312969
  2.359818
  2.335605
  2.263467
  2.444009
  2.326934
  2.371224
  2.414341
  2.377215
  2.433782
  2.429074
  2.386483
  2.394449
  2.467865
  2.362219
  2.300898
  2.451518
  2.428351
  2.457644
  2.342976
  2.389142
  2.334944
  2.423971
  2.388064
  2.438635
  2.446568
  2.381355
  2.367969
  2.475772
  2.459583
  2.453098
  2.308535
  2.469795
  2.410414
  2.414359
  2.433585
  2.493862
  2.329266
  2.417408
  2.438601
  2.463131
  2.406976
  2.374614
  2.425392
  2.350717
  2.466262
  2.493344
  2.458422
  2.528019
  2.410360
  2.473098
  2.546154
  2.505657
  2.542152
  2.436260
  2.492733
  2.506079
  2.570099
  2.468592
  2.446130
  2.359715
  2.552710
  2.307146
  2.407716
  2.526282
  2.435382
  2.591609
  2.376165
  2.507216
  2.577833
  2.484624
  2.333831
  2.614435
  2.595424
  2.450855
  2.557699
  2.362424
  2.609610
  2.456961
  2.571897
  2.634544
  2.374950
  2.631446
  2.500124
  2.631631
  2.496313
  2.638546
  2.305367
  2.612822
  2.434307
  2.447452
  2.393679
  2.551878
  2.653839
  2.117744
  2.636779
  2.554375
  2.422874
  2.678725
  2.675053
  2.476600
  2.614172
  2.463976
  2.714504
  2.670186
  2.678169
  2.525528
  2.377735
  2.736583
  2.536964
  2.649671
  2.447244
  2.687504
  2.764715
  2.442353
  2.707705
  2.405444
  2.594112
  2.726679
  2.608783
  2.502193
  2.779208
  2.507004
  2.675471
  2.775737
  2.465188
  2.824125
  2.760705
  2.348304
  2.554744
  2.691621
  2.573722
  2.842059
  2.380817
  2.809483
  2.769553
  2.856330
  2.426224
  2.833413
  2.413686
  2.632044
  2.898646
  2.648221
  2.463521
  2.506176
  2.858202
  2.335471
  2.732314
  2.937576
  2.522452
  2.446503
  2.872322
  2.593366
  2.564298
  2.864023
  2.781966
  2.377868
  2.966599
  2.857976
  2.972551
  2.908511
  2.407760
  2.996963
  2.418948
  2.651281
  2.943367
  2.464823
  2.663793
  3.018995
  2.482811
  2.317130
  2.381732
  2.765859
  2.403838
  2.861756
  2.968835
  2.554850
  3.053367
  2.545949
  2.369293
  3.000149
  2.037684
  2.898406
  2.962078
  3.061253
  2.369378
  2.737026
  2.396262
  2.992742
  2.633743
  3.061707
  2.430997
  2.460114
  3.091458
  3.012281
  3.075755
  2.593611
  2.769709
  2.861118
  2.221192
  2.341687
  2.471199
  2.990932
  2.351410
  3.107864
  3.007539
  2.471753
  3.066648
  2.930282
  2.676762
  2.285683
  2.352164
  2.532090
  2.960133
  2.332480
  2.959713
  3.083368
  2.298142
  2.365133
  2.496876
  2.939964
  2.753637
  2.627707
  2.231203
  2.998741
  2.303429
  2.320329
  2.859561
  2.204826
  3.018902
  2.356063
  2.528500
  2.661348
  2.279971
  2.312459
  2.831323
  2.777401
  2.850611
  2.201819
  2.142271
  2.736295
  2.312334
  2.256005
  2.214164
  2.795217
  2.308622
  2.478351
  2.106735
  2.668489
  2.028830
  2.241345
  2.609167
  2.364218
  2.022017
  2.245461
  2.242897
  2.189919
  2.496844
  2.101060
  1.859672
  2.188702
  2.514945
  2.382889
  1.845299
  2.276449
  2.050553
  2.191744
  2.058978
  1.708359
  2.103652
  2.196018
  2.433978
  1.945559
  2.124032
  1.542746
  2.189085
  2.039440
  1.755615
  1.817364
  2.214317
  1.543560
  2.025995
  1.697352
  1.950448
  1.173520
  2.049587
  1.779093
  1.679050
  1.395780
  1.686297
  1.631036
  2.358304
  0.881406
  1.914927
  1.332432
  1.804341
  0.890493
  2.065882
  1.336183
  1.183207
  1.298280
  1.175434
  1.184918
  1.656287
  0.382370
  1.985668
  1.903042
  1.432001
  0.839291
  2.191229
  0.351315
  0.883365
  0.894695
  1.236703
  0.638090
  0.731076
  1.724047
  0.774459
  1.644857
  0.450981
  0.207487
  1.979532
  0.646715
  1.046889
  0.561482
  0.374876
  1.313925
  -0.224792
  1.742343
  1.864825
  0.473453
  1.286758
  0.126873
  0.266271
  1.996440
  0.358286
  0.725399
  1.474673
  -0.112556
  0.338012
  0.200827
  2.131452
  -0.115505
  1.856746
  1.553917
  -0.194163
  0.248546
  0.198469
  0.689039
  -0.256571
  0.155433
  1.612256
  1.239686
  0.107714
  0.981844
  2.159658
  1.869806
  -0.094585
  -0.192748
  0.116994
  0.228188
  2.963443
  0.045632
  0.091822
  0.365951
  1.372276
  -0.104375
  0.090157
  0.103241
  2.264566
  0.228022
  0.264557
  -0.136957
  -0.036804
  0.088373
  0.136433
  1.482614
  -0.287641
  0.061819
  2.685217
  0.145630
  -0.248817
  1.805109
  0.300916
  0.130085
  -0.007680
  0.316345
  0.265661
  0.140051
  -0.202318
  -0.012616
  0.305466
  -0.027483
  -0.266184
  -0.009785
  1.828312
  0.878849
  0.324124
  -0.168093
  1.501763
  -0.213147
  -0.006727
  0.077322
  -0.222283
  1.102949
  0.010007
  -0.237600
  0.550678
  0.012063
  -0.096299
  -0.451284
  -0.270455
  -0.309082
  -0.204652
  -0.386143
  -0.235648
  -0.346044
  -0.217072
  1.448908
  -0.351708
  -0.224918
  -0.361659
  -0.219017
  1.798511
  -0.603552
  -0.288724
  1.448376
  1.860889
  -0.345091
  -0.660827
  0.631229
  0.860447
  0.008963
  -0.439281
  -0.366175
  -0.782222
  -0.344904
  -0.684963
  -0.567706
  -0.326825
  -0.684415
  2.169532
  2.322511
  1.422286
  -0.611085
  1.783141
  -1.156520
  -0.725657
  -1.218173
  -0.701640
  -0.692066
  -1.274385
  -1.274943
  -0.800169
  1.863060
  -1.276844
  1.468399
  2.670745
  -0.643940
  0.855480
  -0.530050
  0.642278
  -1.231246
  2.639106
  -1.357717
  -1.728938
  -1.332367
  -1.344908
  -1.863466
  -1.961703
  -1.953963
  1.528138
  2.628007
  1.848836
  -1.377129
  -1.596560
  0.861089
  1.433240
  3.308673
  2.055254
  -0.431852
  0.746776
  -1.849476
  -2.067412
  -2.046472
  -2.086577
  -0.276218
  2.415298
  -2.587059
  -2.619285
  -2.455980
  -2.168189
  1.726911
  1.954281
  -1.741551
  -1.603662