# vtk DataFile Version 2.0
FSI_Simulation
ASCII

DATASET UNSTRUCTURED_GRID
POINTS 2042 double
  2.500000  0.410000  0.000000
  2.450000  0.410000  0.000000
  2.500000  0.358750  0.000000
  2.455000  0.345150  0.000000
  2.400000  0.410000  0.000000
  2.500000  0.307500  0.000000
  2.409170  0.352960  0.000000
  2.425000  0.303110  0.000000
  2.350000  0.410000  0.000000
  2.359860  0.354270  0.000000
  2.500000  0.256250  0.000000
  2.450000  0.259810  0.000000
  2.375000  0.303110  0.000000
  2.400000  0.259810  0.000000
  2.300000  0.410000  0.000000
  2.500000  0.205000  0.000000
  2.325000  0.303110  0.000000
  2.425000  0.216510  0.000000
  2.300000  0.346410  0.000000
  2.350000  0.259810  0.000000
  2.375000  0.216510  0.000000
  2.450000  0.173210  0.000000
  2.275000  0.303110  0.000000
  2.250000  0.410000  0.000000
  2.300000  0.259810  0.000000
  2.500000  0.153750  0.000000
  2.400000  0.173210  0.000000
  2.250000  0.346410  0.000000
  2.325000  0.216510  0.000000
  2.350000  0.173210  0.000000
  2.429170  0.133880  0.000000
  2.250000  0.259810  0.000000
  2.225000  0.303110  0.000000
  2.275000  0.216510  0.000000
  2.200000  0.410000  0.000000
  2.197270  0.363510  0.000000
  2.375000  0.129900  0.000000
  2.500000  0.102500  0.000000
  2.300000  0.173210  0.000000
  2.450000  0.086600  0.000000
  2.325000  0.129900  0.000000
  2.200000  0.259810  0.000000
  2.225000  0.216510  0.000000
  2.400000  0.086600  0.000000
  2.250000  0.173210  0.000000
  2.170490  0.306770  0.000000
  2.150000  0.410000  0.000000
  2.350000  0.086600  0.000000
  2.500000  0.051250  0.000000
  2.275000  0.129900  0.000000
  2.135420  0.358250  0.000000
  2.429170  0.044630  0.000000
  2.175000  0.216510  0.000000
  2.300000  0.086600  0.000000
  2.150000  0.259810  0.000000
  2.200000  0.173210  0.000000
  2.375000  0.043300  0.000000
  2.225000  0.129900  0.000000
  2.112500  0.313250  0.000000
  2.100000  0.410000  0.000000
  2.325000  0.043300  0.000000
  2.250000  0.086600  0.000000
  2.500000  0.000000  0.000000
  2.450000  0.000000  0.000000
  2.125000  0.216510  0.000000
  2.400000  0.000000  0.000000
  2.150000  0.173210  0.000000
  2.075000  0.366700  0.000000
  2.175000  0.129900  0.000000
  2.275000  0.043300  0.000000
  2.087500  0.269950  0.000000
  2.350000  0.000000  0.000000
  2.200000  0.086600  0.000000
  2.050000  0.410000  0.000000
  2.300000  0.000000  0.000000
  2.050000  0.323400  0.000000
  2.225000  0.043300  0.000000
  2.100000  0.173210  0.000000
  2.125000  0.129900  0.000000
  2.062500  0.226650  0.000000
  2.150000  0.086600  0.000000
  2.025000  0.366700  0.000000
  2.250000  0.000000  0.000000
  2.175000  0.043300  0.000000
  2.025000  0.280100  0.000000
  2.000000  0.410000  0.000000
  2.000000  0.323400  0.000000
  2.200000  0.000000  0.000000
  2.070830  0.133290  0.000000
  2.100000  0.086600  0.000000
  2.037500  0.183350  0.000000
  2.125000  0.043300  0.000000
  1.975000  0.366700  0.000000
  2.000000  0.236790  0.000000
  2.150000  0.000000  0.000000
  1.975000  0.280100  0.000000
  1.950000  0.410000  0.000000
  2.050000  0.086600  0.000000
  1.950000  0.323400  0.000000
  2.012500  0.140050  0.000000
  2.075000  0.043300  0.000000
  1.975000  0.193490  0.000000
  2.100000  0.000000  0.000000
  1.925000  0.366700  0.000000
  1.950000  0.236790  0.000000
  1.925000  0.280100  0.000000
  2.000000  0.086600  0.000000
  1.900000  0.410000  0.000000
  2.025000  0.043300  0.000000
  1.900000  0.323400  0.000000
  1.950000  0.150190  0.000000
  2.050000  0.000000  0.000000
  1.925000  0.193490  0.000000
  1.900000  0.236790  0.000000
  1.875000  0.366700  0.000000
  1.875000  0.280100  0.000000
  1.975000  0.043300  0.000000
  1.937500  0.096750  0.000000
  2.000000  0.000000  0.000000
  1.850000  0.410000  0.000000
  1.902380  0.145780  0.000000
  1.850000  0.323400  0.000000
  1.875000  0.193490  0.000000
  1.850000  0.236790  0.000000
  1.820830  0.365370  0.000000
  1.925000  0.043300  0.000000
  1.950000  0.000000  0.000000
  1.800000  0.410000  0.000000
  1.850000  0.150190  0.000000
  1.877180  0.088810  0.000000
  1.810710  0.280600  0.000000
  1.800000  0.323400  0.000000
  1.820830  0.195410  0.000000
  1.800000  0.236790  0.000000
  1.900000  0.000000  0.000000
  1.875360  0.035430  0.000000
  1.825000  0.106890  0.000000
  1.800000  0.150190  0.000000
  1.750000  0.410000  0.000000
  1.750000  0.358750  0.000000
  1.750000  0.307500  0.000000
  1.750000  0.256250  0.000000
  1.825000  0.043300  0.000000
  1.850000  0.000000  0.000000
  1.750000  0.205000  0.000000
  1.793300  0.076870  0.000000
  1.750000  0.153750  0.000000
  1.700640  0.410000  0.000000
  1.704300  0.327190  0.000000
  1.750000  0.102500  0.000000
  1.800000  0.000000  0.000000
  1.706240  0.242410  0.000000
  1.676060  0.366700  0.000000
  1.679550  0.284150  0.000000
  1.704500  0.168810  0.000000
  1.750000  0.051250  0.000000
  1.682040  0.198780  0.000000
  1.655740  0.327710  0.000000
  1.651490  0.410000  0.000000
  1.750000  0.000000  0.000000
  1.656690  0.241750  0.000000
  1.703750  0.082910  0.000000
  1.678980  0.125940  0.000000
  1.627030  0.366700  0.000000
  1.631170  0.284620  0.000000
  1.654610  0.169080  0.000000
  1.632070  0.198270  0.000000
  1.607330  0.328120  0.000000
  1.602560  0.410000  0.000000
  1.700280  0.000000  0.000000
  1.675600  0.043300  0.000000
  1.655160  0.082380  0.000000
  1.606810  0.241470  0.000000
  1.630810  0.125620  0.000000
  1.578220  0.366700  0.000000
  1.582990  0.284920  0.000000
  1.604730  0.168150  0.000000
  1.578920  0.210800  0.000000
  1.650920  0.000000  0.000000
  1.559000  0.328320  0.000000
  1.553870  0.410000  0.000000
  1.626430  0.043300  0.000000
  1.606660  0.082260  0.000000
  1.556930  0.242380  0.000000
  1.582820  0.125810  0.000000
  1.529630  0.366700  0.000000
  1.534940  0.284960  0.000000
  1.555320  0.166880  0.000000
  1.601940  0.000000  0.000000
  1.530950  0.199810  0.000000
  1.577650  0.043300  0.000000
  1.510670  0.328200  0.000000
  1.505400  0.410000  0.000000
  1.558080  0.082770  0.000000
  1.534730  0.126670  0.000000
  1.507460  0.243800  0.000000
  1.481280  0.366700  0.000000
  1.486910  0.284640  0.000000
  1.506480  0.166500  0.000000
  1.553350  0.000000  0.000000
  1.529250  0.043300  0.000000
  1.482130  0.200990  0.000000
  1.462240  0.327690  0.000000
  1.457160  0.410000  0.000000
  1.509220  0.083990  0.000000
  1.486020  0.128110  0.000000
  1.458500  0.244760  0.000000
  1.433170  0.366700  0.000000
  1.438620  0.283990  0.000000
  1.458930  0.158770  0.000000
  1.505150  0.000000  0.000000
  1.481250  0.043300  0.000000
  1.434180  0.201480  0.000000
  1.459870  0.085670  0.000000
  1.413590  0.326890  0.000000
  1.409170  0.410000  0.000000
  1.409940  0.244800  0.000000
  1.385300  0.366700  0.000000
  1.389560  0.283370  0.000000
  1.409090  0.158420  0.000000
  1.457350  0.000000  0.000000
  1.433650  0.043300  0.000000
  1.386550  0.201040  0.000000
  1.410050  0.086600  0.000000
  1.364750  0.326450  0.000000
  1.361420  0.410000  0.000000
  1.361460  0.243860  0.000000
  1.337670  0.366700  0.000000
  1.409950  0.000000  0.000000
  1.338650  0.284240  0.000000
  1.386460  0.043300  0.000000
  1.354150  0.119670  0.000000
  1.313920  0.410000  0.000000
  1.316290  0.328550  0.000000
  1.332940  0.164270  0.000000
  1.312360  0.242750  0.000000
  1.362970  0.000000  0.000000
  1.290300  0.366700  0.000000
  1.295390  0.283330  0.000000
  1.339680  0.043300  0.000000
  1.325730  0.078680  0.000000
  1.304410  0.123360  0.000000
  1.266670  0.410000  0.000000
  1.266740  0.323400  0.000000
  1.272670  0.239000  0.000000
  1.283210  0.168120  0.000000
  1.316400  0.000000  0.000000
  1.243180  0.366700  0.000000
  1.246180  0.281190  0.000000
  1.293330  0.043300  0.000000
  1.277840  0.081590  0.000000
  1.256410  0.126460  0.000000
  1.219690  0.410000  0.000000
  1.219750  0.323400  0.000000
  1.233390  0.170720  0.000000
  1.222230  0.237350  0.000000
  1.270260  0.000000  0.000000
  1.196320  0.366700  0.000000
  1.247400  0.043300  0.000000
  1.196390  0.280100  0.000000
  1.229040  0.084940  0.000000
  1.205650  0.129050  0.000000
  1.189490  0.207370  0.000000
  1.172960  0.410000  0.000000
  1.173020  0.323400  0.000000
  1.224540  0.000000  0.000000
  1.181510  0.158020  0.000000
  1.201900  0.043300  0.000000
  1.149720  0.366700  0.000000
  1.179360  0.086600  0.000000
  1.143430  0.291070  0.000000
  1.144660  0.247780  0.000000
  1.126490  0.410000  0.000000
  1.142770  0.189580  0.000000
  1.179250  0.000000  0.000000
  1.134770  0.140320  0.000000
  1.156830  0.043300  0.000000
  1.103400  0.366700  0.000000
  1.100860  0.316520  0.000000
  1.099450  0.268150  0.000000
  1.103580  0.220000  0.000000
  1.080300  0.410000  0.000000
  1.096330  0.172140  0.000000
  1.134410  0.000000  0.000000
  1.100760  0.105310  0.000000
  1.058360  0.324420  0.000000
  1.099400  0.056460  0.000000
  1.059350  0.282410  0.000000
  1.062400  0.233330  0.000000
  1.051490  0.361960  0.000000
  1.062400  0.206670  0.000000
  1.062400  0.140000  0.000000
  1.034380  0.410000  0.000000
  1.090000  0.000000  0.000000
  1.032380  0.305960  0.000000
  1.027830  0.333570  0.000000
  1.033760  0.246670  0.000000
  1.028220  0.281830  0.000000
  1.059860  0.078570  0.000000
  1.030770  0.220170  0.000000
  1.033760  0.193330  0.000000
  1.015410  0.368300  0.000000
  1.056850  0.040910  0.000000
  1.013850  0.293330  0.000000
  1.011380  0.313820  0.000000
  1.013850  0.280000  0.000000
  1.013850  0.266670  0.000000
  1.013850  0.240000  0.000000
  1.012290  0.252000  0.000000
  1.025480  0.152840  0.000000
  1.013850  0.226670  0.000000
  1.028350  0.124560  0.000000
  1.002130  0.333160  0.000000
  1.012290  0.214670  0.000000
  1.013850  0.200000  0.000000
  1.032380  0.094040  0.000000
  1.000000  0.300000  0.000000
  1.012290  0.188000  0.000000
  1.013850  0.173330  0.000000
[...]
POINT_DATA 2042
SCALARS pressure double
LOOKUP_TABLE default
  0.200108
  0.013973
  -0.058712
  -0.047475
  0.229541
  0.121976
  0.126068
  -0.007836
  -0.121803
  0.049002
  0.014529
  0.014394
  0.033028
  0.024977
  -0.295152
  -0.031912
  0.079140
  0.037306
  -0.084962
  0.092649
  0.079564
  0.046300
  0.208006
  0.408839
  0.144692
  0.025881
  0.073031
  0.169782
  0.120309
  0.106882
  0.040100
  0.123792
  0.096417
  0.131005
  0.292911
  0.307439
  0.094211
  -0.005707
  0.133587
  0.038841
  0.125163
  0.190807
  0.200144
  0.116294
  0.177819
  0.306788
  0.053234
  0.138823
  -0.028197
  0.161241
  0.212360
  0.123120
  0.207407
  0.164782
  0.246239
  0.195441
  0.148016
  0.183891
  0.240200
  0.344584
  0.150029
  0.185037
  -0.169358
  0.055318
  0.268874
  0.126710
  0.240664
  0.372954
  0.224935
  0.171153
  0.256094
  0.151096
  0.218897
  0.357006
  0.169067
  0.355986
  0.195964
  0.272151
  0.249477
  0.297303
  0.240469
  0.376075
  0.200496
  0.219182
  0.331375
  0.382068
  0.362495
  0.221287
  0.281591
  0.264360
  0.309438
  0.246912
  0.376730
  0.336048
  0.248524
  0.345811
  0.406346
  0.283213
  0.384876
  0.316351
  0.269127
  0.344831
  0.262240
  0.395926
  0.357688
  0.377729
  0.304302
  0.461346
  0.299436
  0.399500
  0.366302
  0.287712
  0.367782
  0.384986
  0.441628
  0.384698
  0.284061
  0.395755
  0.291489
  0.505113
  0.384760
  0.395610
  0.394716
  0.384344
  0.359100
  0.378233
  0.232048
  0.233606
  0.430708
  0.383437
  0.433721
  0.422041
  0.386478
  0.411935
  0.710680
  0.536819
  0.402694
  0.410334
  0.287743
  0.350038
  0.404636
  0.439378
  0.392300
  0.433648
  0.443965
  0.432705
  0.427832
  0.483876
  0.449147
  0.409550
  0.246011
  0.453002
  0.540067
  0.471130
  0.451289
  0.327257
  0.468798
  0.516711
  0.519792
  0.288046
  0.506622
  0.444102
  0.479865
  0.550866
  0.516786
  0.496329
  0.510018
  0.538922
  0.546903
  0.482673
  0.536720
  0.517266
  0.536136
  0.530708
  0.557199
  0.536522
  0.524054
  0.549949
  0.528961
  0.561463
  0.564442
  0.549974
  0.542665
  0.556776
  0.551661
  0.576120
  0.565788
  0.552593
  0.558970
  0.572549
  0.557569
  0.582332
  0.585455
  0.569025
  0.585028
  0.582290
  0.594057
  0.588937
  0.572217
  0.578846
  0.578177
  0.595573
  0.605250
  0.608760
  0.592710
  0.607928
  0.601665
  0.612899
  0.614945
  0.597082
  0.602350
  0.594709
  0.608296
  0.637633
  0.627065
  0.633293
  0.627285
  0.632103
  0.637368
  0.627956
  0.639463
  0.622772
  0.636704
  0.639841
  0.648340
  0.660307
  0.634831
  0.649327
  0.745750
  0.663859
  0.662591
  0.659483
  0.693380
  0.673202
  0.669539
  0.654970
  0.671780
  0.673545
  0.682743
  0.630373
  0.688470
  0.667792
  0.717266
  0.689963
  0.685042
  0.678748
  0.724085
  0.686843
  0.688763
  0.677399
  0.687519
  0.685349
  0.719006
  0.726343
  0.692845
  0.667635
  0.763303
  0.701658
  0.671802
  0.724759
  0.710887
  0.645139
  0.672378
  0.789324
  0.721879
  0.770933
  0.724914
  0.728667
  0.733449
  0.622932
  0.753727
  0.738489
  0.833138
  0.714976
  0.810907
  0.786587
  0.569355
  0.702287
  0.754629
  0.715471
  0.714840
  0.638841
  0.698128
  0.583637
  0.724794
  0.782880
  0.567169
  0.749380
  0.772582
  0.726457
  0.760084
  0.683209
  0.817858
  0.643211
  0.740445
  0.765533
  0.775259
  0.771080
  0.692863
  0.781703
  0.756487
  0.714632
  0.416985
  0.790464
  0.771263
  0.791826
  0.786642
  0.786657
  0.788318
  0.750993
  0.787744
  0.714599
  0.870746
  0.784391
  0.773225
  0.641356
  0.787686
  0.762354
  0.759102
  0.792334
  0.794099
  0.794220
  0.765602
  0.794157
  0.549081
  0.761263
  0.809599
  0.793303
  0.444681
  0.825048
  0.756641
  0.792565
  0.803783
  0.786898
  0.748448
  0.780904
  0.728776
  0.800345
  0.776797
  0.803257
  0.775762
  0.774983
  0.802438
  0.676118
  0.797386
  0.771761
  0.805660
  0.797982
  0.806590
  0.807671
  0.764645
  0.782596
  0.797197
  0.742857
  0.790201
  0.804873
  0.736172
  0.805981
  0.811650
  0.810600
  0.794605
  0.784400
  0.793145
  0.800467
  0.818147
  0.807798
  0.789537
  0.815257
  0.766335
  0.781163
  0.818170
  0.793986
  0.814115
  0.761662
  0.802737
  0.809479
  0.827765
  0.814767
  0.765674
  0.821042
  0.820068
  0.796703
  0.824357
  0.806436
  0.826177
  0.812663
  0.785428
  0.821229
  0.818311
  0.824549
  0.874884
  0.795777
  0.826327
  0.693427
  0.808431
  0.894374
  0.815103
  0.804127
  0.820878
  0.834409
  0.944561
  0.825379
  0.828335
  0.787778
  0.830256
  0.811773
  0.832095
  0.818919
  0.823629
  0.865977
  0.810999
  0.831359
  0.829545
  0.834254
  0.835207
  0.857469
  0.821025
  0.822549
  0.827822
  0.820251
  0.832493
  0.839681
  0.835745
  0.838315
  0.818999
  0.839955
  0.961160
  0.840549
  0.832235
  0.835883
  0.829122
  0.829056
  0.841972
  0.840929
  0.838795
  0.843766
  0.844719
  0.844581
  0.837610
  0.840832
  0.790565
  0.844277
  0.836373
  0.843725
  0.846848
  0.844703
  0.848830
  0.848390
  0.802902
  0.848330
  0.845731
  0.844293
  0.848918
  0.822605
  0.851682
  0.844780
  0.852543
  0.853942
  0.880503
  0.852236
  0.873247
  0.852301
  0.851690
  0.853543
  0.856540
  0.916877
  0.852087
  0.858738
  0.845822
  0.858323
  0.858874
  0.858479
  0.855927
  0.858652
  0.860945
  0.858558
  0.863433
  0.845718
  0.859450
  0.863699
  0.816410
  0.864545
  0.861505
  0.905770
  0.858925
  0.864842
  0.866028
  0.868824
  0.869318
  0.865746
  0.869901
  0.853891
  0.881832
  0.876565
  0.868138
  0.870699
  0.864842
  0.869966
  0.870907
  0.873250
  0.871822
  0.875929
  0.866617
  0.874621
  0.875019
  0.890133
  0.907959
  0.872206
  0.868037
  0.878116
  0.876444
  0.881279
  0.881597
  0.881446
  0.879452
  0.866005
  0.869995
  0.879041
  0.875839
  0.882811
  0.885744
  0.881533
  0.888552
  0.886174
  0.887338
  0.874993
  0.809512
  0.882632
  0.891059
  0.887334
  0.878910
  0.890152
  0.894418
  0.887334
  0.894229
  0.893685
  0.885561
  0.874137
  0.890189
  0.855969
  0.885242
  0.894287
  0.891242
  0.897956
  0.902255
  0.899318
  0.898532
  0.875601
  0.880326
  0.886128
  0.893297
  0.896570
  0.897906
  0.901495
  0.864122
  0.907580
  0.893020
  0.908225
  0.820210
  0.906326
  0.887113
  0.876562
  0.902474
  0.894354
  0.900251
  0.872155
  0.905448
  0.903834
  0.910456
  0.916527
  0.913130
  0.912313
  0.890382
  0.890985
  0.945832
  0.894686
  0.904759
  0.907771
  0.913152
  0.920597
  0.902926
  0.923224
  0.782593
  0.920512
  0.897224
  0.903596
  0.888363
  0.914176
  0.909196
  0.916505
  0.922690
  0.932234
  0.928101
  0.880801
  0.925755
  0.914210
  0.897046
  0.882804
  0.918216
  0.924714
  0.934019
  0.911608
  0.940152
  0.901197
  0.934847
  0.906679
  0.914304
  0.893451
  0.926711
  0.912908
  0.927003
  0.918487
  0.934602
  0.946516
  0.907266
  0.944473
  0.894364
  0.913474
  0.940050
  0.891078
  0.925355
  0.902769
  0.935923
  0.927734
  0.947187
  0.956871
  0.919905
  0.926200
  0.950098
  0.898090
  0.941294
  0.911686
  0.926945
  0.937340
  0.946164
  0.962051
  0.961307
  0.983881
  0.899729
  0.953987
  0.934906
  0.906976
  0.923731
  0.892345
  0.959361
  0.946039
  0.938158
  1.012095
  0.916849
  0.974305
  0.928435
  0.933796
  0.965650
  0.900963
  0.953204
  0.938955
  0.956450
  0.946283
  0.975129
  0.978975
  0.967682
  0.968326
  0.937952
  0.889392
  0.949373
  0.929519
  0.955111
  0.944853
  0.970543
  0.917366
  0.988013
  0.846055
  0.945417
  0.982814
  0.900822
  0.967646
  0.941294
  0.953448
  0.965720
  0.944922
  0.986757
  0.884379
  0.962145
  0.993696
  0.985434
  0.960856
  0.953634
  0.879466
  0.935123
  0.962621
  0.951320
  0.918566
  0.979189
  0.990228
  1.001290
  0.945605
  0.997744
  0.917156
  0.982256
  0.951534
  0.926107
  0.958953
  0.972922
  0.950170
  0.995514
  1.008804
  0.956970
  0.907652
  0.998258
  0.947961
  0.971922
  0.940485
  0.916984
  0.985829
  0.967730
  0.954602
  1.012182
  0.915396
  0.950052
  1.013209
  0.766192
  0.993281
  0.911542
  0.957918
  0.929293
  0.962205
  0.977887
  1.002359
  0.951748
  0.908226
  1.022988
  1.011832
  0.979570
  0.947562
  0.944214
  0.970562
  0.955247
  0.918498
  0.990986
  0.759388
  0.974677
  1.021352
  0.949124
  1.024936
  1.003542
  0.906527
  0.962702
  0.950922
  0.930646
  0.962808
  0.980977
  1.008971
  0.948829
  1.033781
  1.021653
  0.901455
  0.985904
  0.946538
  0.948066
  0.946053
  0.916487
  0.971377
  0.994748
  0.952320
  1.030614
  0.944428
  0.881168
  1.034809
  1.009411
  0.894961
  0.964993
  0.929320
  0.961896
  0.981512
  1.013267
  1.045023
  0.892505
  1.025757
  0.988676
  0.943797
  0.938669
  0.910434
  0.969128
  0.951903
  0.995255
  0.955712
  1.038032
  1.041122
  0.944295
  0.886032
  1.009722
  0.886440
  0.963544
  0.923024
  0.955965
  0.978845
  1.015694
  0.929406
  1.054712
  1.025705
  0.920879
  0.863438
  0.985760
  0.933038
  0.937804
  0.963490
  0.945221
  0.991904
  1.041193
  0.899719
  1.044074
  0.943140
  0.799538
  1.005401
  0.869654
  0.958597
  0.948300
  0.971918
  1.011258
  0.913664
  1.060434
  0.849616
  1.019493
  0.979764
  0.932996
  0.929135
  0.885260
  0.953449
  0.934314
  0.983087
  1.036269
  0.916610
  1.045225
  0.930674
  0.994300
  0.855150
  0.891313
  0.948276
  0.877951
  0.905473
  0.936287
  0.959143
  1.000259
  1.051911
  1.013608
  0.875357
  0.861931
  0.966298
  0.921316
  0.922625
  0.913934
  0.881779
  0.938687
  0.918742
  0.966297
  1.021623
  0.915295
  1.036030
  0.866390
  0.981963
  0.931278
  0.863892
  0.911051
  0.885676
  0.919037
  0.939567
  0.977792
  1.038066
  0.858874
  0.905873
  0.997478
  0.865961
  0.945427
  0.894099
  0.862991
  0.916436
  0.941186
  0.989315
  0.902393
  1.020137
  0.803787
  0.955005
  0.906759
  0.627797
  0.843998
  0.865404
  0.912982
  0.898518
  0.945291
  0.998479
  0.841525
  0.973979
  0.915310
  0.891204
  0.863496
  0.832224
  0.950617
  0.839503
  0.892172
  0.905881
  0.883553
  0.976641
  0.889181
  0.926049
  0.792907
  0.866910
  0.826998
  0.833397
  0.873245
  0.822332
  0.875614
  0.880806
  0.942430
  0.896244
  0.927878
  0.870575
  0.878105
  0.807316
  0.819343
  0.808731
  0.862544
  0.862303
  0.872847
  0.875640
  0.864455
  0.915410
  0.876595
  0.814398
  0.793052
  0.805248
  0.796559
  0.849543
  0.844419
  0.850046
  0.837010
  0.876794
  0.798190
  0.856549
  0.801976
  0.755933
  0.776597
  0.831200
  0.816207
  0.841944
  0.785091
  0.786568
  0.846621
  0.767457
  0.726930
  0.789842
  0.745634
  0.770164
  0.767570
  0.824951
  0.823868
  0.804815
  0.780445
  0.740808
  0.697692
  0.797957
  0.835496
  0.877608
  0.706473
  0.744210
  0.866543
  0.723348
  0.642565
  0.765691
  0.802611
  0.762761
  0.818979
  0.641141
  0.770013
  0.744809
  0.685778
  0.612527
  0.832058
  0.802231
  0.587608
  0.772066
  0.695716
  0.814374
  0.833115
  0.578748
  0.768104
  0.712740
  0.611983
  0.751034
  0.774914
  0.727372
  0.803153
  0.494880
  0.496891
  0.758928
  0.784635
  0.428190
  0.725506
  0.572232
  0.457669
  0.740873
  0.663525
  0.491247
  0.632496
  0.801215
  0.687467
  0.742728
  0.757049
  0.838083
  0.322385
  0.343300
  0.754979
  0.781360
  0.695450
  0.568740
  0.364413
  0.461994
  0.319809
  0.789963
  0.349558
  0.891518
  0.753640
  0.553804
  0.712242
  0.720609
  0.644170
  0.629802
  0.320850
  0.332676
  0.473153
  0.346367
  0.785850
  0.754055
  0.340758
  0.802759
  0.409732
  0.742049
  0.417108
  0.766393
  0.677206
  0.564526
  0.454577
  0.741288
  0.476394
  0.604262
  0.768616
  0.515950
  0.719289
  0.486458
  0.854514
  0.507600
  0.711382
  0.682415
  0.624869
  0.493282
  0.773885
  0.523617
  0.766552
  0.743662
  0.804757
  0.524548
  0.541118
  0.786878
  0.639524
  0.757230
  0.678677
  0.579530
  0.596773
  0.716989
  0.825148
  0.529201
  0.566973
  0.785726
  0.733594
  0.554488
  0.548996
  0.582417
  0.578678
  0.693790
  0.640784
  0.767545
  0.751813
  0.804085
  0.710071
  0.565605
  0.624445
  0.781375
  0.667876
  0.614691
  0.755873
  0.593349
  0.615810
  0.730321
  0.747858
  0.687529
  0.640909
  0.792293
  0.599512
  0.733992
  0.625523
  0.610943
  0.710983
  0.610312
  0.628201
  0.668191
  0.770393
  0.759318
  0.719853
  0.824240
  0.625621
  0.685099
  0.633791
  0.753318
  0.654017
  0.653191
  0.747807
  0.706373
  0.888336
  0.642302
  0.797807
  0.742781
  0.784465
  0.686120
  0.663475
  0.677742
  0.736163
  0.696030
  0.816196
  0.830771
  0.681267
  0.690606
  0.766916
  0.775949
  0.734676
  0.680881
  0.715045
  0.761618
  0.925631
  0.697999
  0.690832
  0.706470
  0.840353
  0.772855
  0.729321
  0.704437
  0.794082
  0.849035
  0.754760
  0.717778
  0.800140
  0.774559
  0.774767
  0.726429
  0.768119
  0.709807
  0.739526
  0.736522
  0.799292
  0.754587
  0.796960
  0.721640
  0.751871
  0.739409
  0.763838
  0.722577
  0.807890
  0.757008
  0.746462
  0.729913
  0.743291
  0.800266
  0.770788
  0.741392
  0.739001
  0.819032
  0.762611
  0.804482
  0.761993
  0.771952
  0.804903
  0.789994
  0.750155
  0.823482
  0.776681
  0.785717
  0.784173
  0.780356
  0.755029
  0.793233
  0.765876
  0.834509
  0.785529
  0.836763
  0.791300
  0.775061
  0.792669
  0.844533
  0.857093
  0.799460
  0.847214
  0.798158
  0.821383
  0.789739
  0.859074
  0.800986
  0.802372
  0.835183
  0.812731
  0.767447
  0.803764
  0.848671
  0.809834
  0.855265
  0.884170
  0.819846
  0.818319
  0.875939
  0.833982
  0.810828
  0.851191
  0.873229
  0.892721
  0.843091
  0.904475
  0.913108
  0.838790
  0.814482
  0.773910
  0.856758
  0.872026
  0.928579
  0.899042
  0.784093
  0.826097
  0.866368
  0.818898
  0.878700
  0.886771
  0.862115
  0.947852
  0.929136
  0.850136
  0.901418
  0.828548
  0.908326
  0.872080
  0.962838
  0.950463
  0.881716
  0.821349
  0.927425
  0.980058
  0.945921
  0.850321
  0.866592
  0.956537
  0.825795
  0.903941
  0.995398
  0.923974
  1.003086
  0.996064
  0.881775
  0.819952
  0.976506
  0.965744
  1.008817
  0.843057
  0.946005
  0.878042
  0.989344
  1.031087
  0.823392
  1.029270
  0.747707
  0.924825
  1.001026
  0.875654
  1.020406
  0.845522
  0.723844
  1.044357
  0.923053
  0.828706
  0.983964
  0.797959
  1.046176
  1.082044
  1.050168
  0.916070
  0.866167
  1.112795
  1.066044
  0.982416
  0.870244
  1.054082
  1.118785
  1.076238
  0.803156
  0.975583
  1.151152
  1.046267
  0.898197
  0.804663
  0.947753
  0.838002
  1.116991
  1.054178
  1.179142
  0.870641
  1.139966
  0.951568
  0.715924
  1.201100
  0.657482
  1.141841
  1.028012
  0.868856
  1.171026
  1.206595
  1.183689
  0.914935
  1.231256
  1.021208
  0.804386
  1.118198
  1.234809
  1.233613
  0.902995
  0.806422
  0.850160
  0.986927
  1.127757
  1.261116
  1.248623
  0.980310
  0.700835
  1.262344
  1.079564
  1.290992
  0.756804
  1.288356
  0.865213
  1.242604
  0.927769
  1.201085
  0.796897
  1.070127
  1.284878
  1.317832
  0.796829
  0.925927
  1.308359
  0.843485
  1.014764
  1.353430
  1.185167
  1.304680
  0.998724
  1.351481
  1.411961
  1.124095
  1.403465
  0.845700
  1.302665
  1.401982
  1.435075
  0.934487
  1.094278
  0.793427
  1.264717
  0.644545
  0.923885
  1.420253
  0.739650
  1.467165
  0.830177
  1.033482
  1.465484
  1.235798
  0.511371
  1.485371
  1.395972
  0.997454
  1.158987
  0.722893
  1.482713
  0.813599
  1.432483
  1.520555
  0.774959
  1.496615
  0.926888
  1.512855
  1.109138
  1.517595
  0.586605
  1.309531
  0.902868
  0.689743
  0.791599
  1.026608
  1.513121
  0.385458
  1.542962
  1.249442
  0.593132
  1.544423
  1.536564
  0.978613
  1.151243
  0.752313
  1.509691
  1.502598
  1.518512
  0.875435
  0.680519
  1.574707
  1.092586
  1.400820
  0.624661
  1.536008
  1.555320
  0.830826
  1.311127
  0.749658
  0.971160
  1.505486
  1.224915
  0.750982
  1.570356
  0.927850
  1.074111
  1.497878
  0.640391
  1.516602
  1.437846
  0.520860
  0.782288
  1.292019
  1.007182
  1.421581
  0.626223
  1.437217
  1.183488
  1.494110
  0.483437
  1.402950
  0.676481
  0.819721
  1.406580
  1.092331
  0.746225
  0.613041
  1.299688
  0.504822
  0.853540
  1.351274
  0.801405
  0.492120
  1.266049
  0.852515
  0.568366
  1.220733
  1.100953
  0.546431
  1.216252
  0.905668
  1.092501
  1.139809
  0.391416
  1.164097
  0.572208
  0.494130
  1.047243
  0.616193
  0.758748
  1.003274
  0.360488
  0.473775
  0.342420
  0.419056
  0.288748
  0.778116
  0.858451
  0.582626
  0.895281
  0.172155
  0.422212
  0.763987
  0.273921
  0.377029
  0.682680
  0.676193
  0.240971
  0.439853
  0.426602
  0.580375
  -0.047660
  0.509936
  0.028467
  0.396427
  0.577041
  0.413559
  0.370067
  0.154668
  -0.314300
  0.152989
  0.190032
  -0.011798
  -0.409937
  0.157435
  0.319504
  0.192352
  -0.017502
  0.013987
  -0.087563
  -0.156561
  -0.278530
  -0.061725
  0.230610
  -0.848446
  -0.541353
  -0.529579
  -0.322319
  -0.278907
  0.257564
  -0.029896
  -0.520352
  -0.509548
  -0.755212
  -1.266621
  -0.368826
  -0.632655
  0.166858
  -1.201441
  -0.823179
  -0.646320
  -0.778563
  -0.533814
  -1.178511
  -1.538741
  -0.062383
  -1.785978
  -0.989544
  -1.174243
  -1.239604
  -0.279517
  -1.266236
  -1.261251
  -2.182697
  -0.432265
  -0.108828
  -1.372266
  -1.295729
  -1.775968
  -0.639192
  -1.492477
  -2.040762
  -0.068246
  -1.717879
  -2.169380
  -1.113205
  0.320646
  0.166791
  -1.084907
  -1.793835
  -0.448520
  -2.659096
  -0.374445
  -1.789277
  -1.942676
  -1.903593
  -2.131402
  -2.344946
  -2.307379
  -1.813811
  -2.924733
  -0.819897
  -2.102293
  0.317927
  -0.877782
  -2.223554
  -2.714998
  -0.261419
  -2.237599
  -1.544021
  -2.403669
  -0.057854
  -2.802102
  -0.484369
  -2.911528
  -1.549823
  -3.149391
  -0.690660
  -2.417792
  -2.445613
  -2.367401
  -2.418896
  -2.502873
  0.137130
  -3.179732
  -1.208839
  -2.583578
  -0.983666
  -2.986255
  -0.480634
  -2.556111
  -2.857809
  -3.021081
  -2.632267
  -2.608603
  -1.929026
  -3.177025
  -0.550090
  -0.910670
  -1.661744
  -2.605695
  -0.108968
  -2.883022
  -2.502030
  -2.585274
  -2.648464
  -3.139510
  -2.617137
  -1.352225
  -2.620435
  -1.025322
  -2.573431
  -2.781692
  -0.581545
  -2.987718
  -1.906394
  -2.500181
  -2.587209
  -2.088505
  -2.708069
  -1.053631
  -0.517842
  -2.514789
  -1.470155
  -2.651767
  -2.420815
  -0.400886
  -2.352375
  -2.669615
  -1.566120
  -2.453292
  -2.420589
  -2.436905
  0.132456
  -2.755389
  -0.685578
  -0.954821
  -2.294687
  -2.452635
  -2.299770
  -1.822408
  -2.267903
  -2.313994
  -1.043391
  -1.264856
  -2.371327
  -1.964504
  -0.042890
  -0.518496
  -2.461531
  -2.384901
  -2.404118
  -2.237766
  0.547132
  -2.251210
  -2.342449
  -2.324546
  -1.375883
  -2.122490
  -2.326336
  -2.362600
  -0.014935
  -2.239537
  -2.210508
  -2.201951
  -2.230858
  -2.347474
  -2.297914
  -0.901226
  -2.027690
  -2.269432
  0.331026
  -2.292251
  -2.269979
  -0.587702
  -2.193731
  -2.317072
  -2.220825
  -2.187129
  -2.210476
  -2.310106
  -2.187290
  -2.217391
  -2.190827
  -2.248610
  -2.171327
  -2.215187
  -0.470821
  -1.405654
  -2.181440
  -2.238816
  -1.015028
  -2.194441
  -2.236089
  -1.944811
  -2.195560
  -1.444819
  -2.229963
  -2.202624
  -1.892038
  -2.228453
  -2.147079
  -2.111958
  -2.041250
  -2.140691
  -2.204132
  -2.143586
  -2.167151
  -2.157061
  -2.207309
  -0.756995
  -2.153649
  -2.214020
  -2.158243
  -2.209687
  -0.580604
  -2.239319
  -2.134743
  -0.940665
  -0.263902
  -2.162245
  -2.277760
  -1.401651
  -1.469472
  -2.020593
  -2.101314
  -2.128482
  -2.341946
  -2.156886
  -2.289155
  -2.225672
  -2.138408
  -2.281298
  -0.126201
  0.184692
  -0.623058
  -2.246941
  -0.458680
  -2.649647
  -2.342008
  -2.707220
  -2.303662
  -2.287681
  -2.764384
  -2.760815
  -2.359982
  -0.173105
  -2.743087
  -0.775714
  0.347206
  -2.296076
  -1.095677
  -2.199405
  -1.435086
  -2.720623
  0.543789
  -2.850709
  -3.127614
  -2.814488
  -2.827166
  -3.259374
  -3.361484
  -3.357012
  -0.402630
  0.266772
  -0.346468
  -2.840351
  -3.035849
  -0.943574
  -0.681176
  0.969226