# vtk DataFile Version 2.0
FSI_Simulation
ASCII

DATASET UNSTRUCTURED_GRID
POINTS 2042 double
  2.500000  0.410000  0.000000
  2.450000  0.410000  0.000000
  2.500000  0.358750  0.000000
  2.455000  0.345150  0.000000
  2.400000  0.410000  0.000000
  2.500000  0.307500  0.000000
  2.409170  0.352960  0.000000
  2.425000  0.303110  0.000000
  2.350000  0.410000  0.000000
  2.359860  0.354270  0.000000
  2.500000  0.256250  0.000000
  2.450000  0.259810  0.000000
  2.375000  0.303110  0.000000
  2.400000  0.259810  0.000000
  2.300000  0.410000  0.000000
  2.500000  0.205000  0.000000
  2.325000  0.303110  0.000000
  2.425000  0.216510  0.000000
  2.300000  0.346410  0.000000
  2.350000  0.259810  0.000000
  2.375000  0.216510  0.000000
  2.450000  0.173210  0.000000
  2.275000  0.303110  0.000000
  2.250000  0.410000  0.000000
  2.300000  0.259810  0.000000
  2.500000  0.153750  0.000000
  2.400000  0.173210  0.000000
  2.250000  0.346410  0.000000
  2.325000  0.216510  0.000000
  2.350000  0.173210  0.000000
  2.429170  0.133880  0.000000
  2.250000  0.259810  0.000000
  2.225000  0.303110  0.000000
  2.275000  0.216510  0.000000
  2.200000  0.410000  0.000000
  2.197270  0.363510  0.000000
  2.375000  0.129900  0.000000
  2.500000  0.102500  0.000000
  2.300000  0.173210  0.000000
  2.450000  0.086600  0.000000
  2.325000  0.129900  0.000000
  2.200000  0.259810  0.000000
  2.225000  0.216510  0.000000
  2.400000  0.086600  0.000000
  2.250000  0.173210  0.000000
  2.170490  0.306770  0.000000
  2.150000  0.410000  0.000000
  2.350000  0.086600  0.000000
  2.500000  0.051250  0.000000
  2.275000  0.129900  0.000000
  2.135420  0.358250  0.000000
  2.429170  0.044630  0.000000
  2.175000  0.216510  0.000000
  2.300000  0.086600  0.000000
  2.150000  0.259810  0.000000
  2.200000  0.173210  0.000000
  2.375000  0.043300  0.000000
  2.225000  0.129900  0.000000
  2.112500  0.313250  0.000000
  2.100000  0.410000  0.000000
  2.325000  0.043300  0.000000
  2.250000  0.086600  0.000000
  2.500000  0.000000  0.000000
  2.450000  0.000000  0.000000
  2.125000  0.216510  0.000000
  2.400000  0.000000  0.000000
  2.150000  0.173210  0.000000
  2.075000  0.366700  0.000000
  2.175000  0.129900  0.000000
  2.275000  0.043300  0.000000
  2.087500  0.269950  0.000000
  2.350000  0.000000  0.000000
  2.200000  0.086600  0.000000
  2.050000  0.410000  0.000000
  2.300000  0.000000  0.000000
  2.050000  0.323400  0.000000
  2.225000  0.043300  0.000000
  2.100000  0.173210  0.000000
  2.125000  0.129900  0.000000
  2.062500  0.226650  0.000000
  2.150000  0.086600  0.000000
  2.025000  0.366700  0.000000
  2.250000  0.000000  0.000000
  2.175000  0.043300  0.000000
  2.025000  0.280100  0.000000
  2.000000  0.410000  0.000000
  2.000000  0.323400  0.000000
  2.200000  0.000000  0.000000
  2.070830  0.133290  0.000000
  2.100000  0.086600  0.000000
  2.037500  0.183350  0.000000
  2.125000  0.043300  0.000000
  1.975000  0.366700  0.000000
  2.000000  0.236790  0.000000
  2.150000  0.000000  0.000000
  1.975000  0.280100  0.000000
  1.950000  0.410000  0.000000
  2.050000  0.086600  0.000000
  1.950000  0.323400  0.000000
  2.012500  0.140050  0.000000
  2.075000  0.043300  0.000000
  1.975000  0.193490  0.000000
  2.100000  0.000000  0.000000
  1.925000  0.366700  0.000000
  1.950000  0.236790  0.000000
  1.925000  0.280100  0.000000
  2.000000  0.086600  0.000000
  1.900000  0.410000  0.000000
  2.025000  0.043300  0.000000
  1.900000  0.323400  0.000000
  1.950000  0.150190  0.000000
  2.050000  0.000000  0.000000
  1.925000  0.193490  0.000000
  1.900000  0.236790  0.000000
  1.875000  0.366700  0.000000
  1.875000  0.280100  0.000000
  1.975000  0.043300  0.000000
  1.937500  0.096750  0.000000
  2.000000  0.000000  0.000000
  1.850000  0.410000  0.000000
  1.902380  0.145780  0.000000
  1.850000  0.323400  0.000000
  1.875000  0.193490  0.000000
  1.850000  0.236790  0.000000
  1.820830  0.365370  0.000000
  1.925000  0.043300  0.000000
  1.950000  0.000000  0.000000
  1.800000  0.410000  0.000000
  1.850000  0.150190  0.000000
  1.877180  0.088810  0.000000
  1.810710  0.280600  0.000000
  1.800000  0.323400  0.000000
  1.820830  0.195410  0.000000
  1.800000  0.236790  0.000000
  1.900000  0.000000  0.000000
  1.875360  0.035430  0.000000
  1.825000  0.106890  0.000000
  1.800000  0.150190  0.000000
  1.750000  0.410000  0.000000
  1.750000  0.358750  0.000000
  1.750000  0.307500  0.000000
  1.750000  0.256250  0.000000
  1.825000  0.043300  0.000000
  1.850000  0.000000  0.000000
  1.750000  0.205000  0.000000
  1.793300  0.076870  0.000000
  1.750000  0.153750  0.000000
  1.700640  0.410000  0.000000
  1.704300  0.327190  0.000000
  1.750000  0.102500  0.000000
  1.800000  0.000000  0.000000
  1.706240  0.242410  0.000000
  1.676060  0.366700  0.000000
  1.679550  0.284150  0.000000
  1.704500  0.168810  0.000000
  1.750000  0.051250  0.000000
  1.682040  0.198780  0.000000
  1.655740  0.327710  0.000000
  1.651490  0.410000  0.000000
  1.750000  0.000000  0.000000
  1.656690  0.241750  0.000000
  1.703750  0.082910  0.000000
  1.678980  0.125940  0.000000
  1.627030  0.366700  0.000000
  1.631170  0.284620  0.000000
  1.654610  0.169080  0.000000
  1.632070  0.198270  0.000000
  1.607330  0.328120  0.000000
  1.602560  0.410000  0.000000
  1.700280  0.000000  0.000000
  1.675600  0.043300  0.000000
  1.655160  0.082380  0.000000
  1.606810  0.241470  0.000000
  1.630810  0.125620  0.000000
  1.578220  0.366700  0.000000
  1.582990  0.284920  0.000000
  1.604730  0.168150  0.000000
  1.578920  0.210800  0.000000
  1.650920  0.000000  0.000000
  1.559000  0.328320  0.000000
  1.553870  0.410000  0.000000
  1.626430  0.043300  0.000000
  1.606660  0.082260  0.000000
  1.556930  0.242380  0.000000
  1.582820  0.125810  0.000000
  1.529630  0.366700  0.000000
  1.534940  0.284960  0.000000
  1.555320  0.166880  0.000000
  1.601940  0.000000  0.000000
  1.530950  0.199810  0.000000
  1.577650  0.043300  0.000000
  1.510670  0.328200  0.000000
  1.505400  0.410000  0.000000
  1.558080  0.082770  0.000000
  1.534730  0.126670  0.000000
  1.507460  0.243800  0.000000
  1.481280  0.366700  0.000000
  1.486910  0.284640  0.000000
  1.506480  0.166500  0.000000
  1.553350  0.000000  0.000000
  1.529250  0.043300  0.000000
  1.482130  0.200990  0.000000
  1.462240  0.327690  0.000000
  1.457160  0.410000  0.000000
  1.509220  0.083990  0.000000
  1.486020  0.128110  0.000000
  1.458500  0.244760  0.000000
  1.433170  0.366700  0.000000
  1.438620  0.283990  0.000000
  1.458930  0.158770  0.000000
  1.505150  0.000000  0.000000
  1.481250  0.043300  0.000000
  1.434180  0.201480  0.000000
  1.459870  0.085670  0.000000
  1.413590  0.326890  0.000000
  1.409170  0.410000  0.000000
  1.409940  0.244800  0.000000
  1.385300  0.366700  0.000000
  1.389560  0.283370  0.000000
  1.409090  0.158420  0.000000
  1.457350  0.000000  0.000000
  1.433650  0.043300  0.000000
  1.386550  0.201040  0.000000
  1.410050  0.086600  0.000000
  1.364750  0.326450  0.000000
  1.361420  0.410000  0.000000
  1.361460  0.243860  0.000000
  1.337670  0.366700  0.000000
  1.409950  0.000000  0.000000
  1.338650  0.284240  0.000000
  1.386460  0.043300  0.000000
  1.354150  0.119670  0.000000
  1.313920  0.410000  0.000000
  1.316290  0.328550  0.000000
  1.332940  0.164270  0.000000
  1.312360  0.242750  0.000000
  1.362970  0.000000  0.000000
  1.290300  0.366700  0.000000
  1.295390  0.283330  0.000000
  1.339680  0.043300  0.000000
  1.325730  0.078680  0.000000
  1.304410  0.123360  0.000000
  1.266670  0.410000  0.000000
  1.266740  0.323400  0.000000
  1.272670  0.239000  0.000000
  1.283210  0.168120  0.000000
  1.316400  0.000000  0.000000
  1.243180  0.366700  0.000000
  1.246180  0.281190  0.000000
  1.293330  0.043300  0.000000
  1.277840  0.081590  0.000000
  1.256410  0.126460  0.000000
  1.219690  0.410000  0.000000
  1.219750  0.323400  0.000000
  1.233390  0.170720  0.000000
  1.222230  0.237350  0.000000
  1.270260  0.000000  0.000000
  1.196320  0.366700  0.000000
  1.247400  0.043300  0.000000
  1.196390  0.280100  0.000000
  1.229040  0.084940  0.000000
  1.205650  0.129050  0.000000
  1.189490  0.207370  0.000000
  1.172960  0.410000  0.000000
  1.173020  0.323400  0.000000
  1.224540  0.000000  0.000000
  1.181510  0.158020  0.000000
  1.201900  0.043300  0.000000
  1.149720  0.366700  0.000000
  1.179360  0.086600  0.000000
  1.143430  0.291070  0.000000
  1.144660  0.247780  0.000000
  1.126490  0.410000  0.000000
  1.142770  0.189580  0.000000
  1.179250  0.000000  0.000000
  1.134770  0.140320  0.000000
  1.156830  0.043300  0.000000
  1.103400  0.366700  0.000000
  1.100860  0.316520  0.000000
  1.099450  0.268150  0.000000
  1.103580  0.220000  0.000000
  1.080300  0.410000  0.000000
  1.096330  0.172140  0.000000
  1.134410  0.000000  0.000000
  1.100760  0.105310  0.000000
  1.058360  0.324420  0.000000
  1.099400  0.056460  0.000000
  1.059350  0.282410  0.000000
  1.062400  0.233330  0.000000
  1.051490  0.361960  0.000000
  1.062400  0.206670  0.000000
  1.062400  0.140000  0.000000
  1.034380  0.410000  0.000000
  1.090000  0.000000  0.000000
  1.032380  0.305960  0.000000
  1.027830  0.333570  0.000000
  1.033760  0.246670  0.000000
  1.028220  0.281830  0.000000
  1.059860  0.078570  0.000000
  1.030770  0.220170  0.000000
  1.033760  0.193330  0.000000
  1.015410  0.368300  0.000000
  1.056850  0.040910  0.000000
  1.013850  0.293330  0.000000
  1.011380  0.313820  0.000000
  1.013850  0.280000  0.000000
  1.013850  0.266670  0.000000
  1.013850  0.240000  0.000000
  1.012290  0.252000  0.000000
  1.025480  0.152840  0.000000
  1.013850  0.226670  0.000000
  1.028350  0.124560  0.000000
  1.002130  0.333160  0.000000
  1.012290  0.214670  0.000000
  1.013850  0.200000  0.000000
  1.032380  0.094040  0.000000
  1.000000  0.300000  0.000000
  1.012290  0.188000  0.000000
  1.013850  0.173330  0.000000
[...]
POINT_DATA 2042
SCALARS pressure double
LOOKUP_TABLE default
  0.010462
  -2.766805
  -0.208534
  -2.225846
  -2.941706
  0.107928
  -2.693052
  -2.026507
  -3.997140
  -3.488015
  0.044518
  -0.981520
  -2.991037
  -2.201550
  -4.642505
  -0.041129
  -3.594657
  -1.525227
  -4.271183
  -3.080027
  -2.618735
  -1.031061
  -4.113780
  -4.031280
  -3.804009
  0.148153
  -2.191639
  -4.418555
  -3.475820
  -3.092574
  -1.828491
  -4.639692
  -5.051089
  -4.262602
  -5.294906
  -5.339392
  -2.805457
  -0.070864
  -3.892744
  -1.962474
  -3.605892
  -5.370460
  -4.936151
  -2.744088
  -4.617987
  -5.905538
  -6.769019
  -3.433458
  -0.168414
  -4.335653
  -6.778929
  -2.973786
  -5.740321
  -4.102278
  -6.172884
  -5.318252
  -3.406461
  -5.053759
  -6.802046
  -7.017333
  -3.927916
  -4.772134
  -0.865355
  -2.794071
  -6.361944
  -3.345940
  -6.064102
  -7.212217
  -5.728882
  -4.543348
  -7.019360
  -3.753168
  -5.383394
  -7.507763
  -4.299326
  -7.429581
  -5.160740
  -6.706239
  -6.342549
  -7.233693
  -6.041527
  -7.722959
  -4.885546
  -5.775813
  -7.758379
  -7.984209
  -8.039953
  -5.484629
  -7.041025
  -6.615630
  -7.513172
  -6.321216
  -8.398250
  -8.034796
  -6.055313
  -8.439526
  -8.728816
  -7.195343
  -8.690116
  -7.823392
  -6.936676
  -8.349900
  -6.537938
  -9.137745
  -8.695386
  -9.089487
  -7.895659
  -9.391346
  -7.624712
  -9.360049
  -8.646649
  -7.237077
  -9.063172
  -9.386500
  -9.666110
  -9.764048
  -8.033211
  -8.480671
  -7.823003
  -9.796205
  -9.301498
  -9.947524
  -9.828341
  -10.115910
  -10.381804
  -8.531257
  -8.284560
  -10.916212
  -10.110131
  -9.340094
  -10.599483
  -10.587539
  -10.674084
  -10.961778
  -8.570434
  -9.298530
  -10.344180
  -10.939513
  -11.866064
  -11.832638
  -11.676639
  -11.766984
  -10.310450
  -9.938443
  -11.688693
  -10.948840
  -11.727171
  -12.598951
  -12.609580
  -11.874884
  -11.055672
  -12.330860
  -12.980711
  -12.682204
  -12.492688
  -12.079779
  -12.766973
  -13.256910
  -13.270210
  -12.081680
  -13.109736
  -12.885460
  -12.977705
  -13.569484
  -13.482947
  -13.290774
  -13.515460
  -13.858115
  -13.897659
  -12.830813
  -13.245551
  -13.511569
  -13.847767
  -13.730067
  -14.210105
  -14.157124
  -13.953632
  -14.266503
  -13.490675
  -14.493562
  -14.537136
  -13.799186
  -14.037773
  -14.545574
  -14.291353
  -14.885094
  -14.832335
  -14.603130
  -14.091161
  -14.929300
  -14.371297
  -15.153654
  -15.224429
  -14.613277
  -14.883334
  -15.210203
  -15.539048
  -15.487918
  -15.251153
  -14.655754
  -14.956553
  -15.543122
  -15.796697
  -15.833488
  -15.203012
  -15.526008
  -15.870728
  -16.169862
  -16.142504
  -15.891661
  -15.218063
  -15.575537
  -16.110691
  -15.852592
  -16.427198
  -16.464397
  -16.516875
  -16.812349
  -16.809276
  -16.413884
  -15.836782
  -16.071997
  -16.802092
  -16.299940
  -17.118833
  -17.133332
  -17.232230
  -17.449345
  -16.377769
  -17.496183
  -16.690219
  -17.214786
  -17.692187
  -17.716644
  -17.564552
  -17.852493
  -17.071466
  -18.069356
  -18.137164
  -17.410653
  -17.578628
  -18.008582
  -18.408134
  -18.406131
  -18.478874
  -18.315309
  -17.672690
  -18.769767
  -18.793770
  -17.983224
  -18.162399
  -18.605432
  -18.972034
  -19.042020
  -19.067774
  -19.305018
  -18.162683
  -19.263557
  -18.494634
  -19.568552
  -18.694295
  -19.317565
  -19.844271
  -19.310393
  -19.809231
  -18.483039
  -19.768925
  -18.967220
  -19.847772
  -19.464994
  -20.400985
  -20.447037
  -20.220494
  -20.572257
  -18.834634
  -20.557179
  -19.631709
  -20.880767
  -20.897020
  -21.324282
  -21.396352
  -21.511528
  -21.374127
  -19.786431
  -20.857161
  -21.943851
  -20.811189
  -22.005651
  -22.137683
  -21.850665
  -22.054643
  -21.932839
  -21.853279
  -20.379897
  -22.928619
  -22.897101
  -22.610452
  -22.940339
  -21.841015
  -22.790741
  -22.723888
  -23.102068
  -22.304802
  -23.337639
  -23.456842
  -23.331269
  -23.292137
  -23.255005
  -23.296650
  -22.911374
  -23.265836
  -22.927290
  -23.666060
  -23.303139
  -23.226364
  -22.852941
  -23.754876
  -23.264337
  -23.237956
  -23.689809
  -23.675664
  -23.656999
  -23.298152
  -23.646733
  -23.149984
  -23.244281
  -23.945503
  -23.638578
  -22.278968
  -23.511316
  -23.205787
  -23.630389
  -23.757948
  -23.622387
  -23.235255
  -23.617988
  -23.279603
  -24.030914
  -23.622664
  -23.975396
  -23.625883
  -23.621426
  -23.990093
  -23.287187
  -24.128826
  -23.602169
  -24.169463
  -23.944499
  -24.114672
  -24.172283
  -23.582226
  -24.106720
  -24.005844
  -23.595592
  -23.932755
  -24.304492
  -23.492611
  -24.174569
  -24.310281
  -24.281734
  -24.330091
  -23.909917
  -24.058258
  -24.170815
  -24.471114
  -24.289149
  -24.608972
  -24.439931
  -23.846748
  -23.950993
  -24.505493
  -24.107296
  -24.433133
  -23.562596
  -24.270534
  -24.389530
  -24.585065
  -24.490793
  -23.804574
  -24.653360
  -24.620655
  -24.207832
  -24.723362
  -24.400757
  -24.800699
  -24.519502
  -24.085340
  -24.685770
  -24.627055
  -24.776699
  -23.472583
  -23.806598
  -24.865044
  -23.449877
  -24.468282
  -25.084025
  -24.609367
  -24.335493
  -24.728931
  -25.052086
  -25.187487
  -24.839715
  -24.912474
  -24.098492
  -25.002426
  -24.544191
  -25.123484
  -24.723576
  -24.831828
  -25.216155
  -24.416088
  -25.030141
  -24.975775
  -25.123561
  -25.208486
  -25.396112
  -24.117885
  -24.810273
  -24.957355
  -24.692684
  -25.072765
  -25.346313
  -25.171604
  -25.258878
  -24.478345
  -25.342326
  -23.577669
  -25.440708
  -25.069677
  -25.180244
  -24.944636
  -24.775519
  -25.379556
  -25.318444
  -25.485748
  -25.459123
  -25.542182
  -24.406394
  -25.185326
  -25.314768
  -25.588237
  -25.417950
  -25.052406
  -25.671889
  -25.522101
  -24.774120
  -25.603328
  -25.665438
  -24.494192
  -25.756380
  -25.433137
  -25.310948
  -25.551550
  -25.825378
  -25.640491
  -25.147095
  -25.718696
  -25.804681
  -25.623339
  -25.879445
  -24.927562
  -25.965426
  -25.558159
  -25.672564
  -25.772816
  -23.733367
  -25.449004
  -25.923325
  -26.009214
  -25.871556
  -25.334444
  -26.023117
  -26.106739
  -25.795227
  -25.897788
  -25.694131
  -25.987037
  -26.234290
  -25.591313
  -26.068025
  -26.403801
  -26.150279
  -26.227467
  -25.630969
  -26.336424
  -25.929726
  -26.036865
  -26.127704
  -26.200197
  -25.845464
  -26.271438
  -26.407427
  -25.751958
  -25.320276
  -26.340604
  -25.928224
  -26.456117
  -26.377241
  -26.163003
  -26.255545
  -26.069794
  -26.344134
  -26.572084
  -26.465082
  -26.420212
  -25.892493
  -25.969778
  -26.573642
  -26.624030
  -26.395867
  -26.307795
  -26.550412
  -26.487639
  -26.623790
  -26.228467
  -26.716367
  -26.213338
  -26.687604
  -26.777809
  -26.529920
  -26.616943
  -26.450654
  -26.695209
  -26.813539
  -26.773534
  -26.860812
  -26.841684
  -26.910303
  -26.390080
  -26.667585
  -27.002276
  -26.763697
  -26.844786
  -26.600548
  -26.907383
  -26.978275
  -26.548710
  -27.077730
  -27.034283
  -25.905393
  -27.138694
  -26.900587
  -26.819563
  -26.976489
  -27.054123
  -27.116121
  -27.161627
  -27.127854
  -27.260618
  -27.294098
  -27.266856
  -26.764073
  -27.040815
  -27.113849
  -27.232317
  -27.204428
  -26.990390
  -27.265729
  -27.157747
  -27.332507
  -26.988405
  -27.364662
  -27.386625
  -27.488665
  -27.204197
  -27.338019
  -27.271926
  -27.112612
  -27.337538
  -27.412844
  -27.471381
  -27.544147
  -27.581997
  -27.209334
  -27.263065
  -27.623570
  -27.619448
  -27.412369
  -27.477637
  -27.549978
  -27.398935
  -27.617789
  -28.109273
  -27.689003
  -27.423509
  -27.761067
  -27.706209
  -27.760936
  -27.602037
  -27.641949
  -27.700140
  -27.768862
  -27.827325
  -27.854356
  -27.898060
  -27.965917
  -27.971638
  -27.748371
  -27.785180
  -27.841161
  -27.905913
  -27.791129
  -27.974672
  -27.808012
  -28.043700
  -28.129609
  -28.138794
  -28.206408
  -28.120114
  -27.752062
  -27.994519
  -27.944619
  -28.047892
  -28.112641
  -28.480567
  -28.181126
  -28.509188
  -27.920852
  -28.255074
  -28.047363
  -28.325211
  -28.392445
  -28.199117
  -28.144427
  -28.262347
  -28.328085
  -28.472265
  -28.115017
  -28.399247
  -28.630818
  -28.475264
  -28.578220
  -28.220774
  -28.351256
  -28.403745
  -28.464589
  -28.534882
  -28.312095
  -28.841140
  -28.605735
  -28.682454
  -28.776498
  -28.400941
  -28.707437
  -28.604122
  -28.556989
  -28.515087
  -27.986451
  -28.867203
  -28.682433
  -28.837142
  -28.511888
  -28.750812
  -28.926557
  -28.833140
  -28.654786
  -28.748083
  -28.709932
  -28.815917
  -28.884214
  -28.480302
  -28.959862
  -28.636335
  -29.171202
  -29.059492
  -29.110771
  -28.898787
  -28.852754
  -28.960616
  -29.212533
  -29.021371
  -29.128233
  -28.816769
  -29.102348
  -29.290479
  -29.183578
  -29.242842
  -29.041669
  -29.099807
  -29.019933
  -29.166351
  -29.442878
  -28.587926
  -29.233479
  -29.303553
  -29.390631
  -29.038993
  -29.030735
  -29.454815
  -29.247997
  -29.210606
  -29.537882
  -29.308198
  -29.178458
  -29.367508
  -29.228816
  -29.445900
  -29.596486
  -29.533530
  -29.601662
  -29.677007
  -29.394391
  -29.442922
  -29.393328
  -29.512053
  -29.575097
  -29.493430
  -29.778360
  -29.654024
  -29.462526
  -29.743434
  -29.816773
  -29.910003
  -29.638122
  -29.590376
  -29.555931
  -29.712607
  -29.812348
  -29.577588
  -29.793559
  -29.737029
  -29.872102
  -30.046373
  -29.960525
  -30.046572
  -29.730132
  -29.784086
  -29.835992
  -29.716869
  -30.099409
  -29.930065
  -29.997281
  -30.095445
  -29.699463
  -30.173161
  -29.914251
  -29.876904
  -30.269100
  -29.978892
  -30.623940
  -29.846535
  -30.053398
  -29.873049
  -30.137773
  -30.216855
  -30.391109
  -30.313654
  -29.976923
  -30.403004
  -30.055557
  -30.109003
  -30.176041
  -29.807860
  -30.257612
  -30.335481
  -30.632826
  -30.427170
  -30.046825
  -29.950428
  -30.523387
  -30.630140
  -30.250836
  -30.308067
  -30.235234
  -30.389503
  -30.210321
  -31.007701
  -30.476587
  -30.542051
  -30.833220
  -30.662913
  -30.772176
  -30.397233
  -30.446009
  -30.513233
  -30.594584
  -31.109260
  -30.677198
  -30.771382
  -30.881999
  -30.507313
  -31.018050
  -30.588487
  -30.550455
  -30.643462
  -30.095441
  -30.723759
  -30.784078
  -30.545387
  -31.213661
  -30.899023
  -31.187366
  -30.994123
  -31.115999
  -30.724461
  -30.779692
  -30.843652
  -30.537733
  -30.923211
  -31.012383
  -31.109728
  -31.378959
  -31.111486
  -30.758244
  -31.228766
  -30.915086
  -30.872329
  -30.976472
  -31.053661
  -31.395385
  -31.119469
  -30.853845
  -31.452891
  -31.213236
  -31.510613
  -31.331325
  -31.059538
  -31.112423
  -31.177152
  -31.491069
  -31.239412
  -31.560170
  -31.342139
  -31.445454
  -31.011135
  -31.569416
  -31.668918
  -31.243477
  -31.166908
  -31.309439
  -31.375813
  -30.783959
  -31.447516
  -31.173686
  -31.544928
  -31.997679
  -31.751442
  -31.674480
  -31.773037
  -31.807116
  -31.358281
  -31.442849
  -31.510326
  -31.562134
  -31.670265
  -31.952096
  -32.012706
  -31.773683
  -31.239683
  -30.982515
  -31.913591
  -32.016011
  -31.568072
  -31.471322
  -31.645061
  -31.700263
  -31.437264
  -31.767440
  -32.395180
  -31.867771
  -32.004013
  -32.253741
  -31.343717
  -32.169278
  -31.668908
  -31.779431
  -31.848481
  -31.871983
  -32.315486
  -31.434601
  -31.986688
  -32.501326
  -32.103146
  -32.262580
  -32.379972
  -31.902561
  -31.990163
  -32.038125
  -31.730681
  -32.060209
  -32.869180
  -32.192839
  -32.352258
  -33.406124
  -32.571622
  -32.471310
  -32.123988
  -32.007287
  -32.193123
  -32.191292
  -32.624442
  -32.285704
  -32.439503
  -31.891656
  -32.602233
  -32.740276
  -32.338381
  -32.721261
  -32.264831
  -32.340762
  -32.180400
  -32.360529
  -32.034394
  -32.514412
  -32.799799
  -32.714836
  -32.868312
  -32.837875
  -31.439697
  -32.923721
  -32.406709
  -32.487143
  -32.514282
  -32.559201
  -32.594616
  -32.796662
  -32.500389
  -32.995521
  -32.995549
  -33.073968
  -32.627546
  -32.707297
  -32.562718
  -32.765405
  -32.576443
  -32.685832
  -32.854984
  -33.107314
  -33.210073
  -33.194581
  -33.283047
  -32.762482
  -32.849171
  -32.960467
  -32.945791
  -32.903958
  -33.218154
  -32.785359
  -33.336810
  -33.406490
  -33.450753
  -32.977749
  -33.087334
  -32.865641
  -33.196839
  -33.490423
  -33.398863
  -33.340836
  -33.582690
  -33.579747
  -33.621424
  -33.622803
  -33.364448
  -33.478361
  -33.088996
  -33.214090
  -33.346411
  -33.474237
  -33.787186
  -33.693776
  -33.048539
  -33.863847
  -33.630813
  -33.819119
  -32.820104
  -33.580249
  -33.934297
  -33.827265
  -33.320340
  -33.476520
  -33.195580
  -33.978887
  -33.941553
  -33.987014
  -34.082615
  -34.169963
  -33.018472
  -33.416185
  -34.192734
  -33.573716
  -33.769450
  -33.296206
  -32.809199
  -34.213387
  -34.171357
  -34.160617
  -34.092611
  -34.194196
  -33.656455
  -33.848510
  -33.505336
  -34.770952
  -34.736571
  -34.336324
  -33.697163
  -35.001049
  -34.360749
  -34.605976
  -34.877115
  -33.930967
  -34.165341
  -34.683645
  -34.563472
  -33.698125
  -34.537838
  -34.513589
  -34.708570
  -33.241029
  -35.534322
  -35.461090
  -34.014852
  -33.931675
  -34.215822
  -34.565818
  -35.481729
  -35.126807
  -35.510227
  -34.692921
  -35.357840
  -34.270544
  -34.694656
  -34.941029
  -34.702051
  -34.263714
  -34.857195
  -34.522630
  -35.672131
  -35.663203
  -35.020827
  -35.604623
  -34.008134
  -34.910541
  -35.555985
  -33.903679
  -35.513837
  -34.804236
  -35.380711
  -34.188557
  -34.529089
  -34.853958
  -35.509568
  -34.371875
  -35.381754
  -35.135579
  -34.938816
  -35.374125
  -34.978700
  -35.490962
  -34.513211
  -35.187153
  -34.571747
  -35.116402
  -34.840747
  -35.368513
  -34.335237
  -35.482766
  -35.051477
  -35.096366
  -34.435545
  -35.377396
  -35.528252
  -33.974913
  -35.284779
  -34.579081
  -34.814167
  -35.101576
  -35.401427
  -35.235111
  -35.009727
  -35.428807
  -35.547651
  -35.211903
  -34.749582
  -35.348274
  -35.456143
  -35.615348
  -35.588234
  -35.389624
  -35.091045
  -34.812454
  -35.358558
  -35.305868
  -34.934431
  -35.466808
  -35.614678
  -34.917823
  -35.540216
  -35.707420
  -34.871738
  -35.483231
  -35.295612
  -35.518336
  -35.669519
  -35.124961
  -35.689945
  -35.549641
  -35.539465
  -35.012796
  -35.826517
  -35.497558
  -35.647662
  -35.594606
  -35.831128
  -35.310659
  -34.964155
  -35.662669
  -35.180529
  -35.704141
  -35.619824
  -35.792474
  -35.892698
  -35.070549
  -35.501669
  -35.637664
  -35.771805
  -35.354644
  -35.769837
  -35.953992
  -35.785373
  -35.244911
  -35.793232
  -35.985167
  -35.714149
  -35.944586
  -35.896232
  -35.529121
  -35.256783
  -35.874552
  -35.744739
  -36.002732
  -35.168403
  -35.902438
  -35.410655
  -35.736941
  -36.014003
  -35.299827
  -36.125007
  -35.671063
  -35.805441
  -36.056997
  -36.149601
  -36.005231
  -35.579160
  -35.862515
  -35.994585
  -35.305077
  -35.476464
  -36.114801
  -36.008487
  -35.227144
  -36.107195
  -35.724822
  -35.369101
  -35.907540
  -36.173885
  -36.145767
  -36.121787
  -35.634815
  -36.062093
  -35.946594
  -36.212511
  -36.214682
  -35.521806
  -35.867649
  -36.230974
  -35.790802
  -36.175687
  -36.022181
  -36.307594
  -36.202713
  -35.712024
  -36.057060
  -36.031394
  -36.270399
  -36.345459
  -36.328876
  -35.939807
  -35.616856
  -36.213100
  -36.375658
  -36.112726
  -36.352561
  -35.874350
  -36.387787
  -35.649356
  -35.819699
  -36.197218
  -36.448805
  -36.079880
  -36.451469
  -36.016822
  -36.359136
  -35.962957
  -36.235998
  -36.555440
  -36.463632
  -36.417931
  -36.268540
  -36.556704
  -36.156680
  -36.584070
  -35.906940
  -36.578567
  -36.093859
  -36.275210
  -36.423209
  -36.316704
  -35.871569
  -36.053444
  -36.618208
  -36.306686
  -36.621366
  -36.684014
  -36.408245
  -36.237583
  -36.672570
  -36.445480
  -36.169038
  -36.674125
  -36.705738
  -36.736783
  -36.450578
  -36.756586
  -36.684650
  -36.376277
  -36.143717
  -37.281464
  -36.709802
  -36.487652
  -36.747330
  -36.820545
  -36.445053
  -36.322254
  -36.503201
  -36.290340
  -36.854318
  -36.545601
  -36.489280
  -36.819197
  -36.909159
  -36.459987
  -36.630013
  -36.417402
  -36.953568
  -36.908877
  -36.899463
  -36.992198
  -36.579088
  -36.413559
  -36.684944
  -36.953974
  -37.058905
  -36.548343
  -36.989203
  -36.716943
  -36.528201
  -37.106189
  -37.054080
  -36.689785
  -37.094919
  -37.147456
  -36.680637
  -36.559363
  -36.789437
  -36.782766
  -37.133796
  -36.636962
  -37.218090
  -37.206115
  -36.858800
  -37.183287
  -36.597291
  -37.238526
  -36.741837
  -36.802374
  -37.307516
  -36.777673
  -36.925674
  -37.320969
  -37.696491
  -37.299128
  -37.374916
  -36.742689
  -36.912200
  -37.414641
  -36.979424
  -37.334392
  -37.382570
  -36.905936
  -36.874798
  -37.403252
  -37.048072
  -37.486966
  -37.476411
  -37.037398
  -37.364440
  -37.146453
  -36.879728
  -37.025687
  -37.438093
  -37.558016
  -36.997992
  -37.600032
  -37.637232
  -37.027649
  -37.188670
  -37.132606
  -37.502621
  -37.086735
  -37.240900
  -37.132496
  -36.906882
  -37.614996
  -38.246194
  -37.240626
  -37.748570
  -37.829476
  -37.702528
  -37.684589
  -37.294831
  -37.867380
  -37.668506
  -37.245643
  -37.246138
  -37.845226
  -37.310629
  -37.781875
  -37.257501
  -38.012606
  -37.281009
  -37.940146
  -37.372010
  -37.415291
  -37.910458
  -37.371111
  -38.167192
  -37.937930
  -38.021064
  -37.471493
  -37.337116
  -37.943927
  -38.147369
  -37.476620
  -38.163167
  -38.057572
  -37.499935
  -37.469019
  -37.586362
  -38.030742
  -38.311888
  -37.479464
  -37.698292
  -37.512913
  -38.214196
  -38.098064
  -37.554446
  -38.167590
  -37.581868
  -37.687437
  -38.099508
  -38.286385
  -38.223376
  -38.469390
  -37.670110
  -37.704860
  -38.177134
  -38.429170
  -37.686669
  -37.712123
  -38.320446
  -37.306097
  -37.693706
  -37.774837
  -38.633358
  -38.242126
  -37.709839
  -38.478411
  -37.769439
  -37.832823
  -38.539487
  -38.319497
  -38.409866
  -37.784992
  -38.532377
  -37.653059
  -37.828539
  -38.692186
  -37.901932
  -38.377009
  -37.793720
  -38.448549
  -38.674818
  -37.880829
  -37.904591
  -38.475222
  -37.369855
  -38.586391
  -37.883748
  -38.919096
  -37.860589
  -38.731588
  -37.962944
  -38.686514
  -38.591049
  -37.998996
  -39.047607
  -38.605057
  -38.029506
  -37.983041
  -38.773774
  -39.015689
  -38.686457
  -38.099703
  -38.138772
  -38.969640
  -37.900994
  -38.655959
  -38.099411
  -38.122459
  -39.197916
  -38.241663
  -38.705768
  -38.089592
  -38.816733
  -38.077899
  -38.977164
  -38.264899
  -38.219271
  -39.175772
  -38.794856
  -38.213214
  -38.994785
  -38.299840
  -39.310703
  -38.834642
  -38.326118
  -37.636035
  -39.192114
  -38.335116
  -38.327295
  -38.913792
  -38.075043
  -38.365328
  -38.999426
  -38.864083
  -39.528026
  -38.418964
  -38.278201
  -39.208385
  -38.923349
  -38.430085
  -38.400989
  -39.438961
  -38.511582
  -37.974404
  -39.209291
  -38.950430
  -38.476594
  -39.609710
  -38.557647
  -38.537700
  -39.440870
  -38.555842
  -38.552031
  -38.246630
  -39.042801
  -39.192838
  -39.149158
  -38.608170
  -39.778690
  -39.067787
  -38.520765
  -39.433705
  -38.647213
  -38.649837
  -38.685739
  -39.141927
  -39.693598
  -37.824919
  -39.896739
  -39.413428
  -39.899799
  -38.743046
  -38.721541
  -38.786842
  -39.189525
  -39.679377
  -38.601800
  -38.746194
  -40.150518
  -39.401309
  -38.801155
  -39.275104
  -40.056183
  -38.859123
  -38.853545
  -38.827316
  -39.655778
  -39.345682
  -39.951489
  -38.949777
  -39.302190
  -38.935171
  -39.359612
  -38.997681
  -39.618729
  -38.932833
  -40.286392
  -40.218676
  -39.922788
  -38.956846
  -39.034861
  -39.427327
  -38.985445
  -39.162061
  -39.467625
  -39.008595
  -39.090378
  -40.632430
  -39.163352
  -39.866145
  -39.522030
  -40.205008
  -39.012305
  -39.482185
  -39.123406
  -39.327578
  -39.282517
  -39.019496
  -39.157591
  -39.759397
  -40.614147
  -39.566404
  -39.261173
  -40.160634
  -39.092493
  -40.541010
  -39.610424
  -39.474977
  -39.348553
  -39.699322
  -39.484556
  -40.064557
  -39.116313