# vtk DataFile Version 2.0
FSI_Simulation
ASCII

DATASET UNSTRUCTURED_GRID
POINTS 2042 double
  2.500000  0.410000  0.000000
  2.450000  0.410000  0.000000
  2.500000  0.358750  0.000000
  2.455000  0.345150  0.000000
  2.400000  0.410000  0.000000
  2.500000  0.307500  0.000000
  2.409170  0.352960  0.000000
  2.425000  0.303110  0.000000
  2.350000  0.410000  0.000000
  2.359860  0.354270  0.000000
  2.500000  0.256250  0.000000
  2.450000  0.259810  0.000000
  2.375000  0.303110  0.000000
  2.400000  0.259810  0.000000
  2.300000  0.410000  0.000000
  2.500000  0.205000  0.000000
  2.325000  0.303110  0.000000
  2.425000  0.216510  0.000000
  2.300000  0.346410  0.000000
  2.350000  0.259810  0.000000
  2.375000  0.216510  0.000000
  2.450000  0.173210  0.000000
  2.275000  0.303110  0.000000
  2.250000  0.410000  0.000000
  2.300000  0.259810  0.000000
  2.500000  0.153750  0.000000
  2.400000  0.173210  0.000000
  2.250000  0.346410  0.000000
  2.325000  0.216510  0.000000
  2.350000  0.173210  0.000000
  2.429170  0.133880  0.000000
  2.250000  0.259810  0.000000
  2.225000  0.303110  0.000000
  2.275000  0.216510  0.000000
  2.200000  0.410000  0.000000
  2.197270  0.363510  0.000000
  2.375000  0.129900  0.000000
  2.500000  0.102500  0.000000
  2.300000  0.173210  0.000000
  2.450000  0.086600  0.000000
  2.325000  0.129900  0.000000
  2.200000  0.259810  0.000000
  2.225000  0.216510  0.000000
  2.400000  0.086600  0.000000
  2.250000  0.173210  0.000000
  2.170490  0.306770  0.000000
  2.150000  0.410000  0.000000
  2.350000  0.086600  0.000000
  2.500000  0.051250  0.000000
  2.275000  0.129900  0.000000
  2.135420  0.358250  0.000000
  2.429170  0.044630  0.000000
  2.175000  0.216510  0.000000
  2.300000  0.086600  0.000000
  2.150000  0.259810  0.000000
  2.200000  0.173210  0.000000
  2.375000  0.043300  0.000000
  2.225000  0.129900  0.000000
  2.112500  0.313250  0.000000
  2.100000  0.410000  0.000000
  2.325000  0.043300  0.000000
  2.250000  0.086600  0.000000
  2.500000  0.000000  0.000000
  2.450000  0.000000  0.000000
  2.125000  0.216510  0.000000
  2.400000  0.000000  0.000000
  2.150000  0.173210  0.000000
  2.075000  0.366700  0.000000
  2.175000  0.129900  0.000000
  2.275000  0.043300  0.000000
  2.087500  0.269950  0.000000
  2.350000  0.000000  0.000000
  2.200000  0.086600  0.000000
  2.050000  0.410000  0.000000
  2.300000  0.000000  0.000000
  2.050000  0.323400  0.000000
  2.225000  0.043300  0.000000
  2.100000  0.173210  0.000000
  2.125000  0.129900  0.000000
  2.062500  0.226650  0.000000
  2.150000  0.086600  0.000000
  2.025000  0.366700  0.000000
  2.250000  0.000000  0.000000
  2.175000  0.043300  0.000000
  2.025000  0.280100  0.000000
  2.000000  0.410000  0.000000
  2.000000  0.323400  0.000000
  2.200000  0.000000  0.000000
  2.070830  0.133290  0.000000
  2.100000  0.086600  0.000000
  2.037500  0.183350  0.000000
  2.125000  0.043300  0.000000
  1.975000  0.366700  0.000000
  2.000000  0.236790  0.000000
  2.150000  0.000000  0.000000
  1.975000  0.280100  0.000000
  1.950000  0.410000  0.000000
  2.050000  0.086600  0.000000
  1.950000  0.323400  0.000000
  2.012500  0.140050  0.000000
  2.075000  0.043300  0.000000
  1.975000  0.193490  0.000000
  2.100000  0.000000  0.000000
  1.925000  0.366700  0.000000
  1.950000  0.236790  0.000000
  1.925000  0.280100  0.000000
  2.000000  0.086600  0.000000
  1.900000  0.410000  0.000000
  2.025000  0.043300  0.000000
  1.900000  0.323400  0.000000
  1.950000  0.150190  0.000000
  2.050000  0.000000  0.000000
  1.925000  0.193490  0.000000
  1.900000  0.236790  0.000000
  1.875000  0.366700  0.000000
  1.875000  0.280100  0.000000
  1.975000  0.043300  0.000000
  1.937500  0.096750  0.000000
  2.000000  0.000000  0.000000
  1.850000  0.410000  0.000000
  1.902380  0.145780  0.000000
  1.850000  0.323400  0.000000
  1.875000  0.193490  0.000000
  1.850000  0.236790  0.000000
  1.820830  0.365370  0.000000
  1.925000  0.043300  0.000000
  1.950000  0.000000  0.000000
  1.800000  0.410000  0.000000
  1.850000  0.150190  0.000000
  1.877180  0.088810  0.000000
  1.810710  0.280600  0.000000
  1.800000  0.323400  0.000000
  1.820830  0.195410  0.000000
  1.800000  0.236790  0.000000
  1.900000  0.000000  0.000000
  1.875360  0.035430  0.000000
  1.825000  0.106890  0.000000
  1.800000  0.150190  0.000000
  1.750000  0.410000  0.000000
  1.750000  0.358750  0.000000
  1.750000  0.307500  0.000000
  1.750000  0.256250  0.000000
  1.825000  0.043300  0.000000
  1.850000  0.000000  0.000000
  1.750000  0.205000  0.000000
  1.793300  0.076870  0.000000
  1.750000  0.153750  0.000000
  1.700640  0.410000  0.000000
  1.704300  0.327190  0.000000
  1.750000  0.102500  0.000000
  1.800000  0.000000  0.000000
  1.706240  0.242410  0.000000
  1.676060  0.366700  0.000000
  1.679550  0.284150  0.000000
  1.704500  0.168810  0.000000
  1.750000  0.051250  0.000000
  1.682040  0.198780  0.000000
  1.655740  0.327710  0.000000
  1.651490  0.410000  0.000000
  1.750000  0.000000  0.000000
  1.656690  0.241750  0.000000
  1.703750  0.082910  0.000000
  1.678980  0.125940  0.000000
  1.627030  0.366700  0.000000
  1.631170  0.284620  0.000000
  1.654610  0.169080  0.000000
  1.632070  0.198270  0.000000
  1.607330  0.328120  0.000000
  1.602560  0.410000  0.000000
  1.700280  0.000000  0.000000
  1.675600  0.043300  0.000000
  1.655160  0.082380  0.000000
  1.606810  0.241470  0.000000
  1.630810  0.125620  0.000000
  1.578220  0.366700  0.000000
  1.582990  0.284920  0.000000
  1.604730  0.168150  0.000000
  1.578920  0.210800  0.000000
  1.650920  0.000000  0.000000
  1.559000  0.328320  0.000000
  1.553870  0.410000  0.000000
  1.626430  0.043300  0.000000
  1.606660  0.082260  0.000000
  1.556930  0.242380  0.000000
  1.582820  0.125810  0.000000
  1.529630  0.366700  0.000000
  1.534940  0.284960  0.000000
  1.555320  0.166880  0.000000
  1.601940  0.000000  0.000000
  1.530950  0.199810  0.000000
  1.577650  0.043300  0.000000
  1.510670  0.328200  0.000000
  1.505400  0.410000  0.000000
  1.558080  0.082770  0.000000
  1.534730  0.126670  0.000000
  1.507460  0.243800  0.000000
  1.481280  0.366700  0.000000
  1.486910  0.284640  0.000000
  1.506480  0.166500  0.000000
  1.553350  0.000000  0.000000
  1.529250  0.043300  0.000000
  1.482130  0.200990  0.000000
  1.462240  0.327690  0.000000
  1.457160  0.410000  0.000000
  1.509220  0.083990  0.000000
  1.486020  0.128110  0.000000
  1.458500  0.244760  0.000000
  1.433170  0.366700  0.000000
  1.438620  0.283990  0.000000
  1.458930  0.158770  0.000000
  1.505150  0.000000  0.000000
  1.481250  0.043300  0.000000
  1.434180  0.201480  0.000000
  1.459870  0.085670  0.000000
  1.413590  0.326890  0.000000
  1.409170  0.410000  0.000000
  1.409940  0.244800  0.000000
  1.385300  0.366700  0.000000
  1.389560  0.283370  0.000000
  1.409090  0.158420  0.000000
  1.457350  0.000000  0.000000
  1.433650  0.043300  0.000000
  1.386550  0.201040  0.000000
  1.410050  0.086600  0.000000
  1.364750  0.326450  0.000000
  1.361420  0.410000  0.000000
  1.361460  0.243860  0.000000
  1.337670  0.366700  0.000000
  1.409950  0.000000  0.000000
  1.338650  0.284240  0.000000
  1.386460  0.043300  0.000000
  1.354150  0.119670  0.000000
  1.313920  0.410000  0.000000
  1.316290  0.328550  0.000000
  1.332940  0.164270  0.000000
  1.312360  0.242750  0.000000
  1.362970  0.000000  0.000000
  1.290300  0.366700  0.000000
  1.295390  0.283330  0.000000
  1.339680  0.043300  0.000000
  1.325730  0.078680  0.000000
  1.304410  0.123360  0.000000
  1.266670  0.410000  0.000000
  1.266740  0.323400  0.000000
  1.272670  0.239000  0.000000
  1.283210  0.168120  0.000000
  1.316400  0.000000  0.000000
  1.243180  0.366700  0.000000
  1.246180  0.281190  0.000000
  1.293330  0.043300  0.000000
  1.277840  0.081590  0.000000
  1.256410  0.126460  0.000000
  1.219690  0.410000  0.000000
  1.219750  0.323400  0.000000
  1.233390  0.170720  0.000000
  1.222230  0.237350  0.000000
  1.270260  0.000000  0.000000
  1.196320  0.366700  0.000000
  1.247400  0.043300  0.000000
  1.196390  0.280100  0.000000
  1.229040  0.084940  0.000000
  1.205650  0.129050  0.000000
  1.189490  0.207370  0.000000
  1.172960  0.410000  0.000000
  1.173020  0.323400  0.000000
  1.224540  0.000000  0.000000
  1.181510  0.158020  0.000000
  1.201900  0.043300  0.000000
  1.149720  0.366700  0.000000
  1.179360  0.086600  0.000000
  1.143430  0.291070  0.000000
  1.144660  0.247780  0.000000
  1.126490  0.410000  0.000000
  1.142770  0.189580  0.000000
  1.179250  0.000000  0.000000
  1.134770  0.140320  0.000000
  1.156830  0.043300  0.000000
  1.103400  0.366700  0.000000
  1.100860  0.316520  0.000000
  1.099450  0.268150  0.000000
  1.103580  0.220000  0.000000
  1.080300  0.410000  0.000000
  1.096330  0.172140  0.000000
  1.134410  0.000000  0.000000
  1.100760  0.105310  0.000000
  1.058360  0.324420  0.000000
  1.099400  0.056460  0.000000
  1.059350  0.282410  0.000000
  1.062400  0.233330  0.000000
  1.051490  0.361960  0.000000
  1.062400  0.206670  0.000000
  1.062400  0.140000  0.000000
  1.034380  0.410000  0.000000
  1.090000  0.000000  0.000000
  1.032380  0.305960  0.000000
  1.027830  0.333570  0.000000
  1.033760  0.246670  0.000000
  1.028220  0.281830  0.000000
  1.059860  0.078570  0.000000
  1.030770  0.220170  0.000000
  1.033760  0.193330  0.000000
  1.015410  0.368300  0.000000
  1.056850  0.040910  0.000000
  1.013850  0.293330  0.000000
  1.011380  0.313820  0.000000
  1.013850  0.280000  0.000000
  1.013850  0.266670  0.000000
  1.013850  0.240000  0.000000
  1.012290  0.252000  0.000000
  1.025480  0.152840  0.000000
  1.013850  0.226670  0.000000
  1.028350  0.124560  0.000000
  1.002130  0.333160  0.000000
  1.012290  0.214670  0.000000
  1.013850  0.200000  0.000000
  1.032380  0.094040  0.000000
  1.000000  0.300000  0.000000
  1.012290  0.188000  0.000000
  1.013850  0.173330  0.000000
[...]
POINT_DATA 2042
SCALARS pressure double
LOOKUP_TABLE default
  -9.513508
  -31.344151
  0.393626
  -20.028256
  -51.092420
  0.528552
  -41.568136
  -33.209876
  -71.112754
  -65.465572
  -0.295758
  -22.035002
  -58.175061
  -46.468723
  -89.635529
  0.158174
  -78.620050
  -34.790587
  -90.391214
  -68.679244
  -57.298503
  -22.760665
  -102.126209
  -105.834758
  -90.906020
  0.173252
  -46.546331
  -110.296615
  -80.250648
  -69.058438
  -32.834738
  -114.139074
  -125.598344
  -102.894256
  -135.542128
  -137.659019
  -57.822502
  0.370354
  -91.737782
  -24.289674
  -80.737050
  -136.992884
  -125.654923
  -46.893556
  -114.599115
  -151.510384
  -164.379585
  -69.933748
  0.414188
  -103.428792
  -169.270504
  -36.817097
  -148.664715
  -92.460462
  -160.038107
  -137.256927
  -59.736071
  -126.111697
  -177.202134
  -181.843564
  -81.359156
  -114.959380
  -12.073718
  -32.773650
  -171.314723
  -49.377169
  -160.112728
  -193.348471
  -148.836828
  -103.925524
  -188.394519
  -70.803780
  -137.549910
  -204.028247
  -92.945657
  -205.669352
  -126.464005
  -182.732878
  -171.402314
  -199.954433
  -160.220221
  -216.154947
  -115.250959
  -148.929981
  -216.634003
  -227.695578
  -228.228353
  -137.744134
  -196.110851
  -182.909288
  -210.838246
  -171.509095
  -239.476881
  -228.347313
  -160.253859
  -239.684173
  -251.089907
  -205.131852
  -250.914805
  -222.581189
  -194.127734
  -239.741019
  -182.778218
  -262.646198
  -250.853576
  -262.684461
  -227.930448
  -274.355933
  -216.977176
  -273.869214
  -250.538028
  -205.598300
  -262.419403
  -274.245812
  -285.753619
  -284.856947
  -238.413310
  -257.079790
  -228.421155
  -296.562502
  -273.684392
  -296.914089
  -285.452186
  -296.400377
  -308.001216
  -261.537388
  -248.525153
  -317.318358
  -296.795913
  -281.774053
  -314.550925
  -316.800099
  -310.471648
  -320.409995
  -271.954957
  -285.187428
  -307.785202
  -320.594382
  -342.875272
  -343.244656
  -343.346670
  -344.383364
  -307.239529
  -298.934586
  -343.207037
  -321.419628
  -342.941530
  -367.822980
  -366.561278
  -343.331746
  -318.341509
  -362.819621
  -378.970192
  -375.416446
  -364.373564
  -343.278994
  -374.604997
  -386.645411
  -388.705874
  -343.357427
  -386.341130
  -367.714313
  -376.242582
  -399.769345
  -398.744183
  -387.520381
  -398.029966
  -409.178360
  -411.067826
  -369.188719
  -380.188791
  -387.363456
  -408.974727
  -399.659769
  -422.337223
  -420.085830
  -410.349235
  -422.180972
  -389.889699
  -431.275549
  -433.453353
  -400.717458
  -409.986181
  -432.481187
  -420.407450
  -444.709572
  -442.387705
  -433.270391
  -411.886141
  -444.274694
  -422.954586
  -453.385318
  -455.941090
  -432.157889
  -442.722551
  -454.778856
  -466.894112
  -464.336887
  -455.163779
  -433.969433
  -445.100734
  -466.561637
  -475.607105
  -477.929824
  -453.996342
  -465.446749
  -477.460604
  -488.877855
  -486.526196
  -477.443944
  -456.297676
  -467.187192
  -488.224676
  -477.064018
  -497.842822
  -499.877687
  -499.206048
  -510.833345
  -508.874991
  -499.213820
  -478.347075
  -488.397983
  -510.692274
  -499.032637
  -520.294191
  -521.926305
  -522.151613
  -532.705137
  -498.505506
  -532.158197
  -510.088171
  -525.027271
  -543.439558
  -542.406507
  -535.339722
  -544.081251
  -520.707275
  -554.165607
  -552.410663
  -531.788991
  -538.234992
  -548.142148
  -565.021960
  -565.213966
  -562.940645
  -557.744880
  -542.569172
  -576.022559
  -574.700654
  -552.877795
  -559.593552
  -570.100966
  -586.724543
  -586.644593
  -580.445695
  -585.791415
  -564.006117
  -596.678255
  -573.725126
  -597.387161
  -582.209697
  -592.840556
  -601.397055
  -606.755710
  -608.854964
  -583.702213
  -604.003737
  -594.562079
  -618.743889
  -604.418233
  -623.191319
  -621.066310
  -629.976102
  -622.151425
  -605.311757
  -626.865620
  -614.442449
  -640.231788
  -640.430849
  -642.728097
  -640.610923
  -650.669021
  -643.454076
  -624.108510
  -641.131217
  -661.290934
  -640.172743
  -659.929521
  -660.232095
  -663.368153
  -659.727951
  -658.595853
  -668.472602
  -637.603368
  -675.251845
  -676.966228
  -673.212315
  -676.757396
  -659.278980
  -674.595756
  -673.817896
  -683.499672
  -663.057844
  -683.457574
  -684.100288
  -683.246035
  -683.085925
  -683.325945
  -683.892432
  -677.857571
  -683.322725
  -676.568981
  -690.036117
  -684.044628
  -682.983422
  -673.298325
  -690.173119
  -683.596027
  -682.775239
  -689.929649
  -689.935215
  -689.899277
  -683.904446
  -689.861492
  -677.167359
  -683.080826
  -693.877151
  -689.806798
  -665.185502
  -693.002877
  -682.549183
  -689.810552
  -695.142297
  -689.750449
  -682.605832
  -689.775753
  -682.540153
  -696.350633
  -689.813383
  -695.798332
  -689.765374
  -689.708051
  -696.183730
  -683.435158
  -699.907515
  -689.592638
  -699.393706
  -695.504633
  -698.363227
  -699.524892
  -689.426056
  -700.877095
  -696.629209
  -689.274562
  -695.301684
  -702.442502
  -688.530298
  -699.585687
  -702.037919
  -701.453567
  -704.489328
  -695.197097
  -697.570796
  -699.580610
  -705.601492
  -701.661360
  -707.941764
  -704.389915
  -694.161915
  -696.031047
  -705.977479
  -698.596248
  -704.225644
  -690.856398
  -701.390149
  -703.474259
  -708.672686
  -705.270655
  -695.133608
  -708.362257
  -707.625281
  -700.646825
  -710.032324
  -703.790836
  -711.835398
  -705.818504
  -699.477684
  -708.781027
  -707.715922
  -710.491489
  -692.800049
  -696.869639
  -712.224588
  -687.114852
  -705.227218
  -716.439617
  -707.483591
  -703.710279
  -709.539997
  -715.170790
  -719.523612
  -711.526478
  -712.890780
  -701.622195
  -714.581982
  -706.855729
  -716.679585
  -709.621849
  -711.398313
  -718.881278
  -705.912154
  -714.967544
  -713.943954
  -716.722581
  -718.338527
  -721.338784
  -705.090936
  -711.344007
  -713.677472
  -710.020716
  -715.660257
  -721.445134
  -717.457491
  -719.125349
  -708.370002
  -720.767183
  -699.408057
  -722.817803
  -715.770905
  -717.579345
  -713.989319
  -712.262440
  -721.222995
  -720.036422
  -725.139818
  -722.809817
  -724.538522
  -711.000637
  -717.956903
  -719.976811
  -726.674729
  -721.769897
  -716.369442
  -727.627073
  -723.705662
  -714.374728
  -725.307268
  -726.629052
  -711.322200
  -728.575053
  -722.108344
  -720.314443
  -724.108102
  -730.077700
  -725.737520
  -718.658385
  -727.266186
  -729.034108
  -731.026438
  -730.714473
  -717.526072
  -732.834523
  -724.343785
  -726.210529
  -728.014123
  -704.417725
  -722.722903
  -731.038585
  -733.737575
  -729.896749
  -721.393606
  -733.118332
  -734.971697
  -728.339221
  -730.142966
  -726.648829
  -731.838232
  -737.153528
  -725.023928
  -733.479845
  -741.225385
  -735.208561
  -736.961930
  -725.657296
  -739.081047
  -730.641695
  -732.496518
  -734.215672
  -735.693894
  -729.008907
  -737.214105
  -740.446304
  -727.762859
  -723.662999
  -738.792721
  -730.284005
  -741.199889
  -743.369059
  -734.589760
  -736.348668
  -732.950741
  -738.104196
  -743.387962
  -740.824375
  -739.708858
  -728.075246
  -730.430911
  -743.107310
  -744.313223
  -738.650262
  -736.960141
  -741.850457
  -740.484141
  -743.466164
  -735.450900
  -746.461248
  -734.283670
  -744.979367
  -747.121148
  -740.822638
  -742.581965
  -739.270592
  -744.232602
  -747.012119
  -745.932501
  -750.274998
  -751.713504
  -749.240220
  -737.209594
  -742.981559
  -751.435810
  -744.936486
  -746.677579
  -741.645863
  -748.111518
  -749.727866
  -740.609246
  -753.091644
  -751.112524
  -731.086695
  -753.396333
  -747.080087
  -745.379405
  -748.775954
  -750.497871
  -751.957514
  -753.117498
  -756.439713
  -756.389080
  -756.250886
  -755.424806
  -744.007764
  -749.196734
  -750.922612
  -758.412309
  -752.918202
  -747.994597
  -754.387707
  -759.512158
  -755.953042
  -747.171335
  -759.281979
  -757.307060
  -759.582468
  -751.525739
  -761.355709
  -753.361514
  -747.438632
  -754.993588
  -756.757645
  -758.188064
  -759.880965
  -762.211751
  -749.875365
  -747.065913
  -762.452941
  -761.588769
  -755.380542
  -757.153686
  -758.918255
  -754.258738
  -760.542463
  -769.591330
  -762.211806
  -753.625283
  -764.398970
  -765.651522
  -763.893519
  -757.835528
  -759.635211
  -761.265334
  -762.963178
  -764.427410
  -768.748492
  -766.076079
  -767.631259
  -768.984948
  -757.346719
  -761.588628
  -763.385055
  -765.119605
  -760.552084
  -766.800873
  -760.012042
  -768.429849
  -770.996136
  -770.724456
  -772.408671
  -770.142612
  -752.944510
  -765.682379
  -764.124520
  -767.302991
  -768.984024
  -777.072750
  -770.643884
  -775.974669
  -760.017885
  -772.330998
  -762.148148
  -773.894398
  -775.410665
  -769.635027
  -768.059322
  -771.351897
  -773.003497
  -776.650346
  -766.174402
  -774.682436
  -778.536499
  -776.366562
  -778.519435
  -768.824526
  -771.921343
  -773.530560
  -775.180339
  -776.871677
  -781.331352
  -782.087716
  -778.494341
  -780.169742
  -781.737403
  -769.789475
  -783.555067
  -777.358979
  -775.892566
  -774.264730
  -763.907241
  -783.325807
  -779.263377
  -782.952780
  -772.827703
  -780.878077
  -784.934862
  -782.652659
  -776.208033
  -779.614055
  -778.162494
  -781.387244
  -783.054954
  -772.601040
  -784.744642
  -775.424314
  -788.690661
  -786.782984
  -787.852081
  -781.916939
  -780.265849
  -783.693923
  -789.608395
  -785.280351
  -790.200478
  -778.906294
  -787.116181
  -791.143323
  -788.846520
  -790.135387
  -784.052236
  -785.852710
  -782.828645
  -787.630538
  -793.347112
  -773.068266
  -789.263094
  -790.825713
  -792.624266
  -782.126783
  -792.971210
  -794.086502
  -788.151426
  -786.530005
  -795.755864
  -789.897932
  -782.187803
  -791.457331
  -785.468621
  -793.224736
  -797.334724
  -795.046394
  -796.492008
  -798.063208
  -790.306222
  -792.001430
  -789.099141
  -793.834296
  -795.373191
  -786.675727
  -800.921554
  -797.070920
  -788.302460
  -798.865579
  -800.347019
  -801.923495
  -795.833138
  -794.340295
  -792.756369
  -797.666591
  -803.442010
  -791.613832
  -799.457208
  -804.831848
  -801.066071
  -804.054416
  -802.738008
  -804.306350
  -796.375221
  -798.207863
  -799.682450
  -795.318653
  -806.375121
  -801.768623
  -803.209666
  -805.107387
  -794.499126
  -806.519374
  -800.269678
  -798.692507
  -808.056682
  -802.045506
  -813.054330
  -792.528940
  -803.831732
  -797.890046
  -805.665172
  -807.232027
  -810.158124
  -808.956130
  -800.233302
  -810.544946
  -802.571863
  -804.170796
  -805.896444
  -797.121447
  -807.716893
  -809.294708
  -813.283756
  -810.996401
  -801.313864
  -793.666241
  -812.636231
  -814.188964
  -806.486797
  -808.082023
  -805.216658
  -809.974675
  -804.405297
  -818.187020
  -811.833486
  -813.081964
  -816.739650
  -815.128910
  -816.743011
  -808.821735
  -810.385916
  -812.084870
  -813.895937
  -819.678065
  -815.498795
  -817.169291
  -818.869830
  -808.498739
  -820.473137
  -812.696290
  -811.129724
  -814.290011
  -802.532245
  -816.130680
  -817.473088
  -810.595488
  -824.104782
  -819.588875
  -822.839333
  -821.023629
  -822.849550
  -814.981870
  -816.596001
  -818.202719
  -811.028289
  -819.995947
  -821.639175
  -826.066426
  -826.128594
  -823.344508
  -813.560567
  -825.053261
  -818.894389
  -817.306416
  -820.495653
  -822.260665
  -827.421770
  -823.691276
  -816.677334
  -827.997614
  -825.378138
  -829.257309
  -827.108343
  -821.248119
  -822.790585
  -824.401703
  -829.603547
  -825.934988
  -831.303075
  -827.748159
  -829.493044
  -820.081697
  -831.251601
  -832.663537
  -825.086818
  -823.547529
  -826.694452
  -828.316409
  -814.277830
  -829.874500
  -823.210987
  -831.552142
  -836.992438
  -834.305443
  -833.319839
  -835.437266
  -835.341068
  -827.336953
  -828.984371
  -830.599115
  -832.138197
  -833.880076
  -837.691670
  -838.656361
  -835.610300
  -826.477344
  -822.159512
  -837.396478
  -838.829636
  -831.263751
  -829.613587
  -832.884532
  -834.506890
  -829.263861
  -836.018263
  -843.879521
  -837.671864
  -839.303044
  -841.910127
  -828.354732
  -841.584959
  -833.545504
  -835.170471
  -836.791023
  -838.186703
  -843.461127
  -831.340895
  -840.044503
  -845.883198
  -841.765285
  -843.512030
  -844.995501
  -837.476922
  -839.075612
  -840.697300
  -835.529523
  -842.141053
  -849.203624
  -843.858104
  -845.512097
  -852.959532
  -848.147418
  -846.835941
  -841.359861
  -839.662114
  -842.973313
  -844.377381
  -849.237453
  -846.236417
  -847.871692
  -838.599280
  -849.338556
  -851.504739
  -846.139974
  -851.058892
  -843.664085
  -845.255539
  -842.108528
  -848.284502
  -839.362502
  -849.975988
  -852.168415
  -851.708831
  -854.124786
  -853.036757
  -833.253788
  -854.657299
  -845.977523
  -847.544269
  -850.368774
  -849.153399
  -852.296552
  -854.034102
  -845.700453
  -856.356335
  -855.742695
  -857.120709
  -849.839825
  -851.434846
  -846.907701
  -853.052304
  -848.180084
  -854.427415
  -856.148480
  -857.834952
  -859.097634
  -860.279823
  -861.125906
  -852.158353
  -853.720192
  -856.480602
  -855.325978
  -858.465807
  -860.153045
  -851.676973
  -863.390090
  -861.822546
  -863.262728
  -856.006610
  -857.598674
  -854.483888
  -859.239203
  -865.186189
  -865.114766
  -862.273677
  -864.041807
  -866.988045
  -865.482586
  -866.704765
  -862.653141
  -868.577794
  -858.276304
  -859.882587
  -861.489135
  -864.655684
  -867.205002
  -870.167534
  -858.107280
  -872.590979
  -864.615563
  -869.326744
  -853.750313
  -864.597659
  -868.132855
  -870.945856
  -862.159156
  -863.763365
  -860.626052
  -868.437885
  -873.217740
  -872.984664
  -872.155548
  -871.515139
  -859.424330
  -864.476792
  -869.948857
  -866.039395
  -867.636087
  -862.759410
  -854.385255
  -870.046410
  -877.277160
  -874.859914
  -870.086315
  -877.147121
  -868.314850
  -869.903728
  -866.808240
  -874.315512
  -875.769811
  -880.032058
  -869.517880
  -875.642902
  -879.108157
  -877.472517
  -875.377398
  -872.180342
  -873.748742
  -875.405214
  -879.387986
  -870.497552
  -880.968697
  -882.660723
  -884.559738
  -864.739151
  -880.894002
  -880.610490
  -874.534863
  -873.600686
  -876.031960
  -877.571438
  -881.237710
  -881.696344
  -881.550767
  -888.254878
  -880.571984
  -887.301576
  -886.219171
  -883.574287
  -885.225346
  -878.395031
  -885.428921
  -879.865335
  -883.698669
  -883.716147
  -881.512004
  -883.647093
  -876.727019
  -888.938596
  -883.718763
  -875.634107
  -884.830045
  -888.542773
  -884.254052
  -879.468540
  -882.151073
  -883.582547
  -886.385255
  -881.974025
  -886.219937
  -889.667830
  -892.199711
  -889.054830
  -891.375298
  -888.391193
  -893.390244
  -886.740763
  -884.491132
  -892.239602
  -886.433454
  -888.184135
  -882.749567
  -890.026509
  -895.318285
  -894.549188
  -882.877756
  -889.641487
  -892.283253
  -877.234311
  -894.142925
  -886.052961
  -888.279684
  -889.711539
  -894.462465
  -896.449151
  -897.712300
  -891.922277
  -893.623516
  -898.589602
  -889.041885
  -892.669366
  -893.578293
  -896.145124
  -896.338011
  -898.340395
  -892.589555
  -889.728595
  -900.606616
  -901.734744
  -892.253970
  -895.386637
  -897.552682
  -890.460405
  -900.264487
  -899.134905
  -892.017426
  -897.027293
  -895.855729
  -902.512139
  -908.111507
  -895.502571
  -901.548619
  -904.920729
  -899.111923
  -895.167303
  -901.731262
  -899.394529
  -904.423406
  -900.893642
  -902.899894
  -898.758074
  -895.443152
  -906.741925
  -898.386176
  -908.583221
  -902.611612
  -906.338141
  -904.416954
  -898.157701
  -902.112354
  -904.290013
  -908.595309
  -901.647260
  -911.934601
  -906.428449
  -911.026454
  -901.228531
  -910.838386
  -909.019165
  -906.598678
  -907.997560
  -910.545997
  -904.962851
  -897.939986
  -913.585371
  -908.085684
  -909.671806
  -901.703437
  -912.764675
  -904.493144
  -908.300955
  -912.468810
  -904.131535
  -918.584443
  -908.258471
  -909.906075
  -911.903672
  -918.328984
  -914.680566
  -907.799810
  -911.756386
  -917.089688
  -899.388386
  -907.332806
  -913.714141
  -916.841297
  -904.027309
  -916.637464
  -911.063294
  -906.635646
  -913.350798
  -916.260094
  -915.361326
  -918.779898
  -910.644164
  -920.232857
  -914.880488
  -918.237365
  -917.133598
  -910.042084
  -914.348275
  -920.749199
  -913.947303
  -923.234046
  -917.183968
  -919.264355
  -923.247303
  -913.429751
  -918.517361
  -917.952476
  -923.816929
  -921.007705
  -922.697363
  -917.277656
  -913.423637
  -925.376537
  -922.808735
  -920.139764
  -924.852471
  -916.808184
  -922.736109
  -910.710114
  -916.625609
  -922.327929
  -924.280168
  -920.631189
  -926.842135
  -920.126457
  -929.181739
  -919.635510
  -924.029320
  -926.569165
  -929.322280
  -931.178296
  -925.701423
  -928.935473
  -923.464454
  -928.110580
  -919.619709
  -930.924425
  -922.899992
  -925.872152
  -932.630720
  -927.228603
  -919.063162
  -922.484449
  -929.793790
  -926.840796
  -933.629261
  -932.968565
  -929.450149
  -926.315291
  -931.674856
  -934.440301
  -925.812564
  -935.768854
  -935.019760
  -933.556626
  -931.164390
  -934.930575
  -933.324211
  -929.655940
  -925.414267
  -943.463056
  -938.010753
  -932.826169
  -934.906325
  -937.015892
  -922.455032
  -929.163199
  -932.951415
  -928.912909
  -939.075687
  -934.354664
  -932.890062
  -937.076000
  -938.995636
  -932.505921
  -936.566384
  -932.042089
  -941.106707
  -941.677252
  -938.821602
  -940.919421
  -935.800328
  -932.283371
  -938.277688
  -940.367200
  -943.128967
  -935.360006
  -944.538226
  -939.917195
  -935.153084
  -945.241399
  -942.565629
  -939.078798
  -943.628751
  -945.162162
  -938.689158
  -934.886117
  -941.728909
  -941.404710
  -944.294562
  -938.272993
  -947.241903
  -948.236527
  -943.643358
  -945.727080
  -937.515045
  -947.147430
  -935.134442
  -942.001851
  -949.256921
  -941.571101
  -945.382440
  -951.461924
  -955.392344
  -948.062757
  -951.065780
  -941.373696
  -945.062765
  -953.252660
  -947.049681
  -949.747061
  -951.260937
  -944.874744
  -944.246746
  -951.436058
  -948.566835
  -953.389795
  -954.377432
  -948.299267
  -951.501806
  -950.812005
  -945.031238
  -948.163379
  -953.297834
  -955.376153
  -947.748066
  -958.023382
  -957.261177
  -947.849890
  -952.539753
  -951.300342
  -954.994157
  -949.614193
  -954.268941
  -951.017216
  -940.520146
  -957.299043
  -965.393870
  -954.236628
  -959.498178
  -960.997845
  -958.841743
  -958.251236
  -956.065149
  -961.702490
  -958.820201
  -954.298939
  -951.560133
  -961.505001
  -957.714645
  -960.671271
  -954.324772
  -964.652377
  -953.801646
  -963.678358
  -957.564769
  -960.021309
  -962.597837
  -957.209519
  -967.007598
  -963.971581
  -965.419596
  -961.497791
  -954.915069
  -963.892303
  -967.119339
  -960.831040
  -967.886010
  -966.443270
  -957.111561
  -960.461813
  -963.310317
  -965.231710
  -969.473715
  -960.138440
  -965.184626
  -960.128628
  -969.775092
  -967.215489
  -963.711829
  -969.448333
  -963.293660
  -966.507713
  -968.729630
  -971.729717
  -970.526744
  -973.319110
  -966.723698
  -967.754287
  -970.635273
  -973.993573
  -966.577407
  -964.157666
  -973.429757
  -959.838108
  -966.120736
  -969.733779
  -976.322396
  -972.615096
  -966.154347
  -975.900754
  -971.284392
  -969.919413
  -976.605951
  -974.405700
  -975.608655
  -969.402544
  -977.815103
  -966.870247
  -973.139509
  -979.717152
  -973.159655
  -975.958892
  -968.276972
  -977.135349
  -980.147916
  -974.984842
  -972.663146
  -977.821584
  -963.137570
  -979.735733
  -972.255865
  -983.243656
  -972.040354
  -982.016381
  -976.798583
  -980.709702
  -979.927486
  -975.889373
  -984.915727
  -981.017503
  -978.322471
  -975.524831
  -983.905725
  -986.130391
  -983.417876
  -979.720347
  -980.209827
  -986.589118
  -975.470725
  -983.263975
  -978.778621
  -980.124610
  -988.708707
  -982.282326
  -984.754331
  -978.667872
  -986.428885
  -978.499756
  -988.110404
  -983.467157
  -982.075466