# vtk DataFile Version 2.0
FSI_Simulation
ASCII

DATASET UNSTRUCTURED_GRID
POINTS 2042 double
  2.500000  0.410000  0.000000
  2.450000  0.410000  0.000000
  2.500000  0.358750  0.000000
  2.455000  0.345150  0.000000
  2.400000  0.410000  0.000000
  2.500000  0.307500  0.000000
  2.409170  0.352960  0.000000
  2.425000  0.303110  0.000000
  2.350000  0.410000  0.000000
  2.359860  0.354270  0.000000
  2.500000  0.256250  0.000000
  2.450000  0.259810  0.000000
  2.375000  0.303110  0.000000
  2.400000  0.259810  0.000000
  2.300000  0.410000  0.000000
  2.500000  0.205000  0.000000
  2.325000  0.303110  0.000000
  2.425000  0.216510  0.000000
  2.300000  0.346410  0.000000
  2.350000  0.259810  0.000000
  2.375000  0.216510  0.000000
  2.450000  0.173210  0.000000
  2.275000  0.303110  0.000000
  2.250000  0.410000  0.000000
  2.300000  0.259810  0.000000
  2.500000  0.153750  0.000000
  2.400000  0.173210  0.000000
  2.250000  0.346410  0.000000
  2.325000  0.216510  0.000000
  2.350000  0.173210  0.000000
  2.429170  0.133880  0.000000
  2.250000  0.259810  0.000000
  2.225000  0.303110  0.000000
  2.275000  0.216510  0.000000
  2.200000  0.410000  0.000000
  2.197270  0.363510  0.000000
  2.375000  0.129900  0.000000
  2.500000  0.102500  0.000000
  2.300000  0.173210  0.000000
  2.450000  0.086600  0.000000
  2.325000  0.129900  0.000000
  2.200000  0.259810  0.000000
  2.225000  0.216510  0.000000
  2.400000  0.086600  0.000000
  2.250000  0.173210  0.000000
  2.170490  0.306770  0.000000
  2.150000  0.410000  0.000000
  2.350000  0.086600  0.000000
  2.500000  0.051250  0.000000
  2.275000  0.129900  0.000000
  2.135420  0.358250  0.000000
  2.429170  0.044630  0.000000
  2.175000  0.216510  0.000000
  2.300000  0.086600  0.000000
  2.150000  0.259810  0.000000
  2.200000  0.173210  0.000000
  2.375000  0.043300  0.000000
  2.225000  0.129900  0.000000
  2.112500  0.313250  0.000000
  2.100000  0.410000  0.000000
  2.325000  0.043300  0.000000
  2.250000  0.086600  0.000000
  2.500000  0.000000  0.000000
  2.450000  0.000000  0.000000
  2.125000  0.216510  0.000000
  2.400000  0.000000  0.000000
  2.150000  0.173210  0.000000
  2.075000  0.366700  0.000000
  2.175000  0.129900  0.000000
  2.275000  0.043300  0.000000
  2.087500  0.269950  0.000000
  2.350000  0.000000  0.000000
  2.200000  0.086600  0.000000
  2.050000  0.410000  0.000000
  2.300000  0.000000  0.000000
  2.050000  0.323400  0.000000
  2.225000  0.043300  0.000000
  2.100000  0.173210  0.000000
  2.125000  0.129900  0.000000
  2.062500  0.226650  0.000000
  2.150000  0.086600  0.000000
  2.025000  0.366700  0.000000
  2.250000  0.000000  0.000000
  2.175000  0.043300  0.000000
  2.025000  0.280100  0.000000
  2.000000  0.410000  0.000000
  2.000000  0.323400  0.000000
  2.200000  0.000000  0.000000
  2.070830  0.133290  0.000000
  2.100000  0.086600  0.000000
  2.037500  0.183350  0.000000
  2.125000  0.043300  0.000000
  1.975000  0.366700  0.000000
  2.000000  0.236790  0.000000
  2.150000  0.000000  0.000000
  1.975000  0.280100  0.000000
  1.950000  0.410000  0.000000
  2.050000  0.086600  0.000000
  1.950000  0.323400  0.000000
  2.012500  0.140050  0.000000
  2.075000  0.043300  0.000000
  1.975000  0.193490  0.000000
  2.100000  0.000000  0.000000
  1.925000  0.366700  0.000000
  1.950000  0.236790  0.000000
  1.925000  0.280100  0.000000
  2.000000  0.086600  0.000000
  1.900000  0.410000  0.000000
  2.025000  0.043300  0.000000
  1.900000  0.323400  0.000000
  1.950000  0.150190  0.000000
  2.050000  0.000000  0.000000
  1.925000  0.193490  0.000000
  1.900000  0.236790  0.000000
  1.875000  0.366700  0.000000
  1.875000  0.280100  0.000000
  1.975000  0.043300  0.000000
  1.937500  0.096750  0.000000
  2.000000  0.000000  0.000000
  1.850000  0.410000  0.000000
  1.902380  0.145780  0.000000
  1.850000  0.323400  0.000000
  1.875000  0.193490  0.000000
  1.850000  0.236790  0.000000
  1.820830  0.365370  0.000000
  1.925000  0.043300  0.000000
  1.950000  0.000000  0.000000
  1.800000  0.410000  0.000000
  1.850000  0.150190  0.000000
  1.877180  0.088810  0.000000
  1.810710  0.280600  0.000000
  1.800000  0.323400  0.000000
  1.820830  0.195410  0.000000
  1.800000  0.236790  0.000000
  1.900000  0.000000  0.000000
  1.875360  0.035430  0.000000
  1.825000  0.106890  0.000000
  1.800000  0.150190  0.000000
  1.750000  0.410000  0.000000
  1.750000  0.358750  0.000000
  1.750000  0.307500  0.000000
  1.750000  0.256250  0.000000
  1.825000  0.043300  0.000000
  1.850000  0.000000  0.000000
  1.750000  0.205000  0.000000
  1.793300  0.076870  0.000000
  1.750000  0.153750  0.000000
  1.700640  0.410000  0.000000
  1.704300  0.327190  0.000000
  1.750000  0.102500  0.000000
  1.800000  0.000000  0.000000
  1.706240  0.242410  0.000000
  1.676060  0.366700  0.000000
  1.679550  0.284150  0.000000
  1.704500  0.168810  0.000000
  1.750000  0.051250  0.000000
  1.682040  0.198780  0.000000
  1.655740  0.327710  0.000000
  1.651490  0.410000  0.000000
  1.750000  0.000000  0.000000
  1.656690  0.241750  0.000000
  1.703750  0.082910  0.000000
  1.678980  0.125940  0.000000
  1.627030  0.366700  0.000000
  1.631170  0.284620  0.000000
  1.654610  0.169080  0.000000
  1.632070  0.198270  0.000000
  1.607330  0.328120  0.000000
  1.602560  0.410000  0.000000
  1.700280  0.000000  0.000000
  1.675600  0.043300  0.000000
  1.655160  0.082380  0.000000
  1.606810  0.241470  0.000000
  1.630810  0.125620  0.000000
  1.578220  0.366700  0.000000
  1.582990  0.284920  0.000000
  1.604730  0.168150  0.000000
  1.578920  0.210800  0.000000
  1.650920  0.000000  0.000000
  1.559000  0.328320  0.000000
  1.553870  0.410000  0.000000
  1.626430  0.043300  0.000000
  1.606660  0.082260  0.000000
  1.556930  0.242380  0.000000
  1.582820  0.125810  0.000000
  1.529630  0.366700  0.000000
  1.534940  0.284960  0.000000
  1.555320  0.166880  0.000000
  1.601940  0.000000  0.000000
  1.530950  0.199810  0.000000
  1.577650  0.043300  0.000000
  1.510670  0.328200  0.000000
  1.505400  0.410000  0.000000
  1.558080  0.082770  0.000000
  1.534730  0.126670  0.000000
  1.507460  0.243800  0.000000
  1.481280  0.366700  0.000000
  1.486910  0.284640  0.000000
  1.506480  0.166500  0.000000
  1.553350  0.000000  0.000000
  1.529250  0.043300  0.000000
  1.482130  0.200990  0.000000
  1.462240  0.327690  0.000000
  1.457160  0.410000  0.000000
  1.509220  0.083990  0.000000
  1.486020  0.128110  0.000000
  1.458500  0.244760  0.000000
  1.433170  0.366700  0.000000
  1.438620  0.283990  0.000000
  1.458930  0.158770  0.000000
  1.505150  0.000000  0.000000
  1.481250  0.043300  0.000000
  1.434180  0.201480  0.000000
  1.459870  0.085670  0.000000
  1.413590  0.326890  0.000000
  1.409170  0.410000  0.000000
  1.409940  0.244800  0.000000
  1.385300  0.366700  0.000000
  1.389560  0.283370  0.000000
  1.409090  0.158420  0.000000
  1.457350  0.000000  0.000000
  1.433650  0.043300  0.000000
  1.386550  0.201040  0.000000
  1.410050  0.086600  0.000000
  1.364750  0.326450  0.000000
  1.361420  0.410000  0.000000
  1.361460  0.243860  0.000000
  1.337670  0.366700  0.000000
  1.409950  0.000000  0.000000
  1.338650  0.284240  0.000000
  1.386460  0.043300  0.000000
  1.354150  0.119670  0.000000
  1.313920  0.410000  0.000000
  1.316290  0.328550  0.000000
  1.332940  0.164270  0.000000
  1.312360  0.242750  0.000000
  1.362970  0.000000  0.000000
  1.290300  0.366700  0.000000
  1.295390  0.283330  0.000000
  1.339680  0.043300  0.000000
  1.325730  0.078680  0.000000
  1.304410  0.123360  0.000000
  1.266670  0.410000  0.000000
  1.266740  0.323400  0.000000
  1.272670  0.239000  0.000000
  1.283210  0.168120  0.000000
  1.316400  0.000000  0.000000
  1.243180  0.366700  0.000000
  1.246180  0.281190  0.000000
  1.293330  0.043300  0.000000
  1.277840  0.081590  0.000000
  1.256410  0.126460  0.000000
  1.219690  0.410000  0.000000
  1.219750  0.323400  0.000000
  1.233390  0.170720  0.000000
  1.222230  0.237350  0.000000
  1.270260  0.000000  0.000000
  1.196320  0.366700  0.000000
  1.247400  0.043300  0.000000
  1.196390  0.280100  0.000000
  1.229040  0.084940  0.000000
  1.205650  0.129050  0.000000
  1.189490  0.207370  0.000000
  1.172960  0.410000  0.000000
  1.173020  0.323400  0.000000
  1.224540  0.000000  0.000000
  1.181510  0.158020  0.000000
  1.201900  0.043300  0.000000
  1.149720  0.366700  0.000000
  1.179360  0.086600  0.000000
  1.143430  0.291070  0.000000
  1.144660  0.247780  0.000000
  1.126490  0.410000  0.000000
  1.142770  0.189580  0.000000
  1.179250  0.000000  0.000000
  1.134770  0.140320  0.000000
  1.156830  0.043300  0.000000
  1.103400  0.366700  0.000000
  1.100860  0.316520  0.000000
  1.099450  0.268150  0.000000
  1.103580  0.220000  0.000000
  1.080300  0.410000  0.000000
  1.096330  0.172140  0.000000
  1.134410  0.000000  0.000000
  1.100760  0.105310  0.000000
  1.058360  0.324420  0.000000
  1.099400  0.056460  0.000000
  1.059350  0.282410  0.000000
  1.062400  0.233330  0.000000
  1.051490  0.361960  0.000000
  1.062400  0.206670  0.000000
  1.062400  0.140000  0.000000
  1.034380  0.410000  0.000000
  1.090000  0.000000  0.000000
  1.032380  0.305960  0.000000
  1.027830  0.333570  0.000000
  1.033760  0.246670  0.000000
  1.028220  0.281830  0.000000
  1.059860  0.078570  0.000000
  1.030770  0.220170  0.000000
  1.033760  0.193330  0.000000
  1.015410  0.368300  0.000000
  1.056850  0.040910  0.000000
  1.013850  0.293330  0.000000
  1.011380  0.313820  0.000000
  1.013850  0.280000  0.000000
  1.013850  0.266670  0.000000
  1.013850  0.240000  0.000000
  1.012290  0.252000  0.000000
  1.025480  0.152840  0.000000
  1.013850  0.226670  0.000000
  1.028350  0.124560  0.000000
  1.002130  0.333160  0.000000
  1.012290  0.214670  0.000000
  1.013850  0.200000  0.000000
  1.032380  0.094040  0.000000
  1.000000  0.300000  0.000000
  1.012290  0.188000  0.000000
  1.013850  0.173330  0.000000
[...]
POINT_DATA 2042
SCALARS pressure double
LOOKUP_TABLE default
  0.159096
  -1.179223
  -0.136781
  -1.038412
  -1.028445
  0.115080
  -1.040788
  -0.898582
  -1.670951
  -1.360816
  0.044212
  -0.369952
  -1.197957
  -0.847716
  -2.028110
  -0.052331
  -1.345446
  -0.545030
  -1.714378
  -1.114662
  -0.954607
  -0.354645
  -1.391977
  -1.214904
  -1.326604
  0.096211
  -0.805678
  -1.551102
  -1.246567
  -1.114594
  -0.723627
  -1.644386
  -1.810631
  -1.505762
  -1.728810
  -1.742603
  -1.054312
  -0.051784
  -1.377521
  -0.862423
  -1.306065
  -1.844964
  -1.674900
  -1.089924
  -1.584979
  -1.921321
  -2.395482
  -1.283612
  -0.106044
  -1.520599
  -2.302202
  -1.201177
  -1.928825
  -1.468524
  -2.064574
  -1.799110
  -1.304185
  -1.739316
  -2.264927
  -2.271988
  -1.446345
  -1.661175
  -0.479066
  -1.148450
  -2.074280
  -1.310680
  -2.018754
  -2.316133
  -1.929958
  -1.615583
  -2.326532
  -1.409823
  -1.819471
  -2.393685
  -1.558844
  -2.353346
  -1.784918
  -2.195992
  -2.096345
  -2.334932
  -1.999272
  -2.444492
  -1.703555
  -1.956792
  -2.500009
  -2.500487
  -2.526529
  -1.870221
  -2.284258
  -2.140015
  -2.420086
  -2.087457
  -2.654787
  -2.543922
  -2.012420
  -2.696941
  -2.744735
  -2.295512
  -2.715258
  -2.505434
  -2.252303
  -2.646461
  -2.108842
  -2.885564
  -2.737211
  -2.873693
  -2.505224
  -2.900803
  -2.450801
  -2.917488
  -2.735604
  -2.304721
  -2.859282
  -2.939269
  -2.996834
  -3.083714
  -2.555419
  -2.593454
  -2.474569
  -2.956193
  -2.901760
  -3.100791
  -3.084240
  -3.176378
  -3.289977
  -2.656341
  -2.698537
  -3.590183
  -3.154107
  -2.906816
  -3.300370
  -3.257574
  -3.371355
  -3.437690
  -2.414338
  -2.782948
  -3.221433
  -3.422614
  -3.857737
  -3.788663
  -3.667815
  -3.695699
  -3.213956
  -3.032508
  -3.632469
  -3.405715
  -3.681693
  -3.911268
  -3.965191
  -3.750754
  -3.611312
  -3.846738
  -3.986144
  -3.916318
  -3.920021
  -3.900816
  -3.972183
  -4.123254
  -4.098442
  -3.935196
  -4.078352
  -4.071932
  -4.056065
  -4.172815
  -4.160235
  -4.150040
  -4.182816
  -4.280939
  -4.285056
  -4.000637
  -4.095953
  -4.232966
  -4.288584
  -4.270328
  -4.369005
  -4.362536
  -4.326956
  -4.410982
  -4.191199
  -4.457496
  -4.460832
  -4.274354
  -4.360168
  -4.477999
  -4.423336
  -4.563152
  -4.558348
  -4.504318
  -4.367386
  -4.594281
  -4.437151
  -4.644531
  -4.658463
  -4.510014
  -4.577358
  -4.668607
  -4.754188
  -4.749063
  -4.686347
  -4.498365
  -4.592299
  -4.758128
  -4.822886
  -4.827282
  -4.661113
  -4.749519
  -4.854920
  -4.934885
  -4.938557
  -4.864652
  -4.648900
  -4.767561
  -4.904307
  -4.834289
  -4.999522
  -5.008651
  -5.038757
  -5.121661
  -5.135444
  -4.997956
  -4.820929
  -4.896679
  -5.113031
  -4.942269
  -5.199406
  -5.210399
  -5.244424
  -5.305697
  -4.961910
  -5.326146
  -5.060180
  -5.229682
  -5.337435
  -5.364265
  -5.333858
  -5.415370
  -5.184550
  -5.470750
  -5.522734
  -5.297043
  -5.313993
  -5.485162
  -5.575430
  -5.571645
  -5.609464
  -5.576118
  -5.329209
  -5.704696
  -5.724954
  -5.445542
  -5.462163
  -5.637503
  -5.741599
  -5.731382
  -5.805849
  -5.892319
  -5.441420
  -5.832910
  -5.593777
  -5.942775
  -5.573605
  -5.886596
  -6.063829
  -5.720629
  -5.989935
  -5.425519
  -5.987343
  -5.649398
  -5.951212
  -5.890953
  -6.187949
  -6.220835
  -5.998088
  -6.288749
  -5.368022
  -6.210316
  -5.953929
  -6.362839
  -6.309389
  -6.531531
  -6.587318
  -6.685921
  -6.559523
  -5.982893
  -6.312516
  -6.696192
  -6.452161
  -6.751461
  -6.801298
  -6.691532
  -6.768897
  -6.759987
  -6.613294
  -6.211195
  -7.113131
  -7.086834
  -6.962237
  -7.098129
  -6.714833
  -7.030871
  -7.019131
  -7.183262
  -7.126726
  -7.240679
  -7.309434
  -7.246761
  -7.231830
  -7.204420
  -7.224165
  -7.086516
  -7.209277
  -7.124058
  -7.310210
  -7.225925
  -7.200773
  -7.145440
  -7.412759
  -7.221873
  -7.215863
  -7.382321
  -7.374890
  -7.364647
  -7.235985
  -7.356994
  -7.365509
  -7.218190
  -7.475451
  -7.352746
  -7.066626
  -7.236782
  -7.205750
  -7.349771
  -7.361890
  -7.349395
  -7.226552
  -7.349706
  -7.255210
  -7.505039
  -7.354395
  -7.482717
  -7.357894
  -7.357938
  -7.485794
  -7.299582
  -7.544000
  -7.354296
  -7.555922
  -7.469261
  -7.534290
  -7.554267
  -7.349830
  -7.540081
  -7.493312
  -7.371970
  -7.469189
  -7.602928
  -7.330883
  -7.555383
  -7.605657
  -7.595353
  -7.617770
  -7.465153
  -7.517431
  -7.556223
  -7.661346
  -7.598592
  -7.723493
  -7.654118
  -7.454271
  -7.484380
  -7.672902
  -7.536425
  -7.651763
  -7.350449
  -7.594410
  -7.636844
  -7.686555
  -7.673444
  -7.436602
  -7.730979
  -7.721623
  -7.574807
  -7.755696
  -7.643186
  -7.775758
  -7.685946
  -7.531017
  -7.745995
  -7.724911
  -7.779448
  -7.225453
  -7.417858
  -7.811199
  -7.347604
  -7.667762
  -7.846747
  -7.719463
  -7.615053
  -7.763288
  -7.878967
  -7.844750
  -7.803892
  -7.830458
  -7.525320
  -7.863001
  -7.694187
  -7.912139
  -7.761818
  -7.801856
  -7.913070
  -7.640338
  -7.874790
  -7.854980
  -7.909217
  -7.941203
  -7.993500
  -7.500918
  -7.792060
  -7.848473
  -7.745012
  -7.891278
  -7.985528
  -7.927945
  -7.959925
  -7.647552
  -7.990630
  -7.167360
  -8.030098
  -7.889166
  -7.931361
  -7.840968
  -7.766425
  -8.005087
  -7.982785
  -8.031612
  -8.034534
  -8.064850
  -7.582937
  -7.930038
  -7.980839
  -8.116128
  -8.019902
  -7.872654
  -8.109338
  -8.058721
  -7.744603
  -8.088691
  -8.111342
  -7.660019
  -8.146083
  -8.023548
  -7.975133
  -8.069520
  -8.192668
  -8.103034
  -7.900105
  -8.131937
  -8.163170
  -8.043091
  -8.190027
  -7.778564
  -8.220598
  -8.068801
  -8.114058
  -8.152343
  -7.228274
  -8.020924
  -8.208112
  -8.240118
  -8.189208
  -7.968681
  -8.244496
  -8.275766
  -8.158700
  -8.198889
  -8.118966
  -8.232537
  -8.335051
  -8.074291
  -8.262515
  -8.410643
  -8.292746
  -8.320662
  -8.042725
  -8.365768
  -8.207786
  -8.250454
  -8.285037
  -8.312187
  -8.171297
  -8.338228
  -8.391042
  -8.114152
  -7.926770
  -8.363535
  -8.200476
  -8.407129
  -8.356190
  -8.297026
  -8.332939
  -8.257209
  -8.366108
  -8.448595
  -8.410752
  -8.394215
  -8.155926
  -8.181882
  -8.450749
  -8.470779
  -8.385208
  -8.350944
  -8.443287
  -8.420008
  -8.470276
  -8.312890
  -8.502096
  -8.322378
  -8.493308
  -8.523691
  -8.435327
  -8.468643
  -8.403554
  -8.497656
  -8.540647
  -8.526548
  -8.533418
  -8.578849
  -8.575492
  -8.373480
  -8.488083
  -8.607779
  -8.523813
  -8.554086
  -8.457053
  -8.576988
  -8.603013
  -8.444905
  -8.631890
  -8.623413
  -8.164624
  -8.661678
  -8.575836
  -8.544262
  -8.603834
  -8.632258
  -8.654945
  -8.671326
  -8.627980
  -8.703845
  -8.720336
  -8.709878
  -8.524846
  -8.630207
  -8.656041
  -8.674252
  -8.689096
  -8.613664
  -8.711321
  -8.696298
  -8.735648
  -8.624822
  -8.735453
  -8.755525
  -8.791215
  -8.694735
  -8.713791
  -8.716760
  -8.673270
  -8.739786
  -8.766743
  -8.787986
  -8.814822
  -8.821892
  -8.714146
  -8.716940
  -8.839756
  -8.842523
  -8.772665
  -8.793155
  -8.818814
  -8.767896
  -8.843197
  -9.114120
  -8.869324
  -8.786322
  -8.894640
  -8.860447
  -8.895802
  -8.849200
  -8.856989
  -8.876027
  -8.900077
  -8.921313
  -8.925095
  -8.947577
  -8.974217
  -8.970423
  -8.926940
  -8.913541
  -8.930220
  -8.952298
  -8.922831
  -8.976699
  -8.935685
  -9.002132
  -9.034199
  -9.039947
  -9.067865
  -9.031543
  -8.930560
  -8.989740
  -8.974624
  -9.006386
  -9.028780
  -9.162103
  -9.053536
  -9.193407
  -8.993145
  -9.081562
  -9.052661
  -9.109340
  -9.139396
  -9.063932
  -9.045351
  -9.085461
  -9.108741
  -9.165713
  -9.041530
  -9.134984
  -9.239163
  -9.164730
  -9.209228
  -9.078972
  -9.122816
  -9.139574
  -9.160001
  -9.185301
  -8.967052
  -9.317682
  -9.212604
  -9.244051
  -9.290523
  -9.163261
  -9.239407
  -9.213053
  -9.198479
  -9.186786
  -8.903180
  -9.320088
  -9.240679
  -9.304699
  -9.188754
  -9.265957
  -9.346144
  -9.298343
  -9.240970
  -9.268211
  -9.258361
  -9.290638
  -9.315013
  -9.150432
  -9.344362
  -9.232692
  -9.454251
  -9.384829
  -9.406887
  -9.325982
  -9.312659
  -9.345611
  -9.448457
  -9.366283
  -9.442014
  -9.296515
  -9.396433
  -9.488630
  -9.428245
  -9.455596
  -9.381708
  -9.398580
  -9.377038
  -9.420664
  -9.566288
  -9.153151
  -9.443916
  -9.471841
  -9.507582
  -9.380476
  -9.347786
  -9.536813
  -9.456514
  -9.446778
  -9.570835
  -9.474165
  -9.388279
  -9.494155
  -9.461700
  -9.523188
  -9.584684
  -9.557451
  -9.588523
  -9.624155
  -9.514527
  -9.526382
  -9.521121
  -9.548270
  -9.569228
  -9.559399
  -9.646841
  -9.600947
  -9.557209
  -9.639010
  -9.670347
  -9.718127
  -9.595936
  -9.584334
  -9.577068
  -9.620576
  -9.631380
  -9.592435
  -9.650625
  -9.700809
  -9.682405
  -9.768050
  -9.723114
  -9.765618
  -9.640857
  -9.652993
  -9.667243
  -9.640679
  -9.780417
  -9.697955
  -9.726461
  -9.768978
  -9.633312
  -9.806306
  -9.704621
  -9.696468
  -9.854071
  -9.721080
  -10.096840
  -9.681906
  -9.744413
  -9.700263
  -9.775813
  -9.807462
  -9.908011
  -9.855798
  -9.737123
  -9.900172
  -9.759841
  -9.772509
  -9.791403
  -9.655570
  -9.815445
  -9.848732
  -10.009660
  -9.890535
  -9.761269
  -9.748953
  -9.938414
  -9.995463
  -9.829230
  -9.841447
  -9.832604
  -9.864955
  -9.829100
  -10.174406
  -9.896853
  -9.924317
  -10.094469
  -9.985959
  -10.042111
  -9.890539
  -9.896586
  -9.913719
  -9.934305
  -10.214509
  -9.970538
  -10.015009
  -10.074944
  -9.956904
  -10.149775
  -9.957742
  -9.952582
  -9.964546
  -9.771145
  -9.982654
  -10.005276
  -9.960485
  -10.227235
  -10.049557
  -10.233648
  -10.107580
  -10.174332
  -10.013991
  -10.020496
  -10.032515
  -9.961524
  -10.046564
  -10.088083
  -10.083633
  -10.325339
  -10.135150
  -10.053161
  -10.205127
  -10.080367
  -10.076572
  -10.087229
  -10.095600
  -10.296465
  -10.120083
  -10.074796
  -10.381324
  -10.158469
  -10.359341
  -10.228896
  -10.138923
  -10.145885
  -10.152303
  -10.316297
  -10.149699
  -10.386973
  -10.199265
  -10.251122
  -10.130142
  -10.334288
  -10.401342
  -10.203476
  -10.182675
  -10.212451
  -10.207431
  -10.044457
  -10.219335
  -10.191493
  -10.271419
  -10.523669
  -10.421616
  -10.356249
  -10.437775
  -10.434483
  -10.250586
  -10.272499
  -10.274923
  -10.251982
  -10.298812
  -10.510890
  -10.535439
  -10.369268
  -10.200865
  -10.102357
  -10.465042
  -10.528396
  -10.327620
  -10.300532
  -10.340343
  -10.322471
  -10.286404
  -10.312448
  -10.679036
  -10.374958
  -10.479982
  -10.640730
  -10.239065
  -10.580592
  -10.367735
  -10.403908
  -10.404387
  -10.351425
  -10.661150
  -10.277032
  -10.393691
  -10.729229
  -10.488196
  -10.603058
  -10.677129
  -10.460094
  -10.476849
  -10.454207
  -10.394392
  -10.391584
  -10.917256
  -10.496079
  -10.618735
  -11.272100
  -10.765059
  -10.704832
  -10.544769
  -10.506422
  -10.545142
  -10.471493
  -10.786702
  -10.495871
  -10.623768
  -10.460392
  -10.750030
  -10.829737
  -10.579514
  -10.819512
  -10.611644
  -10.628806
  -10.586234
  -10.521342
  -10.531540
  -10.620713
  -10.874372
  -10.779296
  -10.881377
  -10.865430
  -10.287871
  -10.911970
  -10.678276
  -10.702803
  -10.628038
  -10.710818
  -10.635383
  -10.780530
  -10.724111
  -10.943471
  -10.929150
  -10.973863
  -10.770170
  -10.794619
  -10.749402
  -10.791377
  -10.755195
  -10.685416
  -10.775833
  -10.963923
  -11.036514
  -11.022259
  -11.063423
  -10.830778
  -10.865369
  -10.882101
  -10.897835
  -10.780112
  -11.003920
  -10.837128
  -11.070910
  -11.131765
  -11.144403
  -10.923438
  -10.969567
  -10.872220
  -11.024823
  -11.148324
  -11.070143
  -11.074500
  -11.224956
  -11.179936
  -11.232246
  -11.213254
  -11.082522
  -11.102147
  -10.970134
  -11.030528
  -11.092096
  -11.146217
  -11.329560
  -11.206193
  -10.944967
  -11.192184
  -11.261479
  -11.310931
  -10.841223
  -11.220030
  -11.449415
  -11.291035
  -11.071636
  -11.157344
  -11.014018
  -11.482104
  -11.331637
  -11.372745
  -11.460044
  -11.555630
  -10.924865
  -11.107413
  -11.588576
  -11.191821
  -11.315303
  -11.056494
  -10.850386
  -11.605761
  -11.409436
  -11.464639
  -11.519743
  -11.446855
  -11.217536
  -11.327255
  -11.138002
  -11.961027
  -11.918144
  -11.488170
  -11.227486
  -12.092467
  -11.535098
  -11.769993
  -11.988138
  -11.351554
  -11.498106
  -11.865386
  -11.693854
  -11.208709
  -11.635265
  -11.580585
  -11.636069
  -10.998719
  -12.400867
  -12.362086
  -11.370949
  -11.315557
  -11.494725
  -11.737102
  -12.333831
  -12.090355
  -12.374298
  -11.588533
  -12.276525
  -11.297210
  -11.628196
  -11.907568
  -11.678552
  -11.489897
  -11.796803
  -11.661223
  -12.449697
  -12.431307
  -12.007642
  -12.387221
  -11.332123
  -11.713263
  -12.359812
  -11.280413
  -12.309543
  -11.689381
  -12.213448
  -11.415071
  -11.625910
  -11.846481
  -12.263611
  -11.507947
  -12.159288
  -11.937617
  -11.708804
  -12.128728
  -11.774089
  -12.221595
  -11.405010
  -12.034135
  -11.611258
  -11.860702
  -11.785033
  -12.129940
  -11.461671
  -12.179970
  -11.736423
  -11.797394
  -11.488828
  -12.105795
  -12.177506
  -11.316864
  -11.960013
  -11.572695
  -11.730169
  -11.924301
  -12.050695
  -11.872442
  -11.655220
  -12.116956
  -12.160716
  -11.797362
  -11.659824
  -12.049663
  -12.108889
  -12.168813
  -12.154566
  -11.954926
  -11.864419
  -11.654515
  -11.887324
  -11.802899
  -11.748713
  -12.089222
  -12.125235
  -11.699432
  -12.036680
  -12.176334
  -11.682809
  -12.069690
  -11.961467
  -11.972589
  -11.960613
  -11.837837
  -12.128970
  -11.921566
  -12.082847
  -11.753354
  -12.213270
  -12.048844
  -12.039210
  -12.094915
  -12.207359
  -11.922200
  -11.692473
  -12.001588
  -11.830079
  -11.945408
  -12.085171
  -12.117548
  -12.226303
  -11.749016
  -12.004863
  -12.065611
  -12.054765
  -11.906369
  -11.905942
  -12.238529
  -12.001246
  -11.827741
  -12.022474
  -12.204082
  -12.085476
  -12.199408
  -12.114250
  -11.978732
  -11.788593
  -12.002821
  -12.080792
  -12.209070
  -11.767919
  -12.076980
  -11.900604
  -12.075409
  -12.175347
  -11.826302
  -12.011507
  -12.028932
  -12.096822
  -12.215099
  -12.075878
  -12.122335
  -11.970888
  -12.108223
  -12.071545
  -11.792240
  -11.900719
  -12.222819
  -12.088140
  -11.779963
  -12.163215
  -12.026182
  -11.851079
  -12.119073
  -12.224996
  -12.215401
  -12.138007
  -11.966040
  -12.078939
  -12.123496
  -12.220238
  -12.239898
  -11.899067
  -12.081206
  -12.181954
  -12.027301
  -12.169717
  -12.144950
  -12.271874
  -12.138122
  -11.977097
  -12.147869
  -12.138230
  -12.167539
  -12.271728
  -12.224740
  -12.081405
  -11.912465
  -12.137866
  -12.261438
  -12.163060
  -12.204555
  -12.038451
  -12.266165
  -11.938668
  -11.998824
  -12.192749
  -12.289947
  -12.130753
  -12.244046
  -12.090553
  -12.150591
  -12.057501
  -12.191454
  -12.336075
  -12.215822
  -12.110074
  -12.184185
  -12.287485
  -12.138396
  -12.328975
  -12.016553
  -12.268073
  -12.100197
  -12.186994
  -12.163988
  -12.196257
  -12.001119
  -12.080284
  -12.324041
  -12.191424
  -12.257073
  -12.302954
  -12.229295
  -12.149788
  -12.328529
  -12.160385
  -12.113030
  -12.259692
  -12.296031
  -12.340061
  -12.234280
  -12.328033
  -12.306220
  -12.195217
  -12.094119
  -12.473368
  -12.256561
  -12.227512
  -12.323654
  -12.337998
  -12.294020
  -12.166364
  -12.242924
  -12.145928
  -12.330059
  -12.248162
  -12.228374
  -12.343059
  -12.366178
  -12.211985
  -12.275546
  -12.188593
  -12.367374
  -12.336679
  -12.368361
  -12.402065
  -12.246508
  -12.180248
  -12.288518
  -12.380204
  -12.403591
  -12.229713
  -12.347578
  -12.282519
  -12.221837
  -12.407861
  -12.414976
  -12.276586
  -12.426593
  -12.427357
  -12.273063
  -12.236851
  -12.306704
  -12.307212
  -12.439928
  -12.248843
  -12.450397
  -12.435361
  -12.330142
  -12.449671
  -12.238410
  -12.466623
  -12.320417
  -12.309335
  -12.470855
  -12.293620
  -12.347433
  -12.480308
  -12.636958
  -12.492486
  -12.498156
  -12.273088
  -12.340719
  -12.521650
  -12.357252
  -12.488034
  -12.494826
  -12.332529
  -12.322624
  -12.504281
  -12.381676
  -12.533016
  -12.527212
  -12.379110
  -12.474310
  -12.421589
  -12.310277
  -12.368035
  -12.492852
  -12.548686
  -12.352046
  -12.574504
  -12.578519
  -12.368015
  -12.421034
  -12.396109
  -12.508414
  -12.382371
  -12.431182
  -12.398384
  -12.350304
  -12.551413
  -12.822978
  -12.421969
  -12.611953
  -12.657127
  -12.589081
  -12.588889
  -12.434175
  -12.664432
  -12.556370
  -12.424483
  -12.452498
  -12.633170
  -12.412949
  -12.611494
  -12.431770
  -12.718220
  -12.448385
  -12.678732
  -12.460006
  -12.448988
  -12.672650
  -12.460166
  -12.788822
  -12.662922
  -12.695920
  -12.461944
  -12.469135
  -12.670292
  -12.764780
  -12.486953
  -12.758648
  -12.696235
  -12.530456
  -12.474972
  -12.519784
  -12.711508
  -12.831538
  -12.494150
  -12.574016
  -12.519683
  -12.764038
  -12.719348
  -12.484946
  -12.723466
  -12.517083
  -12.538141
  -12.685083
  -12.772714
  -12.739013
  -12.881038
  -12.514298
  -12.524386
  -12.701918
  -12.841145
  -12.537003
  -12.591471
  -12.762110
  -12.424954
  -12.554565
  -12.541510
  -12.941120
  -12.713389
  -12.577205
  -12.841264
  -12.505086
  -12.581296
  -12.930118
  -12.732010
  -12.780368
  -12.565274
  -12.838541
  -12.549475
  -12.510443
  -12.941293
  -12.564005
  -12.743172
  -12.602993
  -12.775444
  -12.911848
  -12.518576
  -12.589983
  -12.783071
  -12.454344
  -12.836228
  -12.603171
  -13.036753
  -12.604487
  -12.912919
  -12.541539
  -13.059045
  -12.830657
  -12.599191
  -13.101744
  -12.815318
  -12.559916
  -12.613194
  -12.902550
  -13.058486
  -12.830281
  -12.590634
  -12.606876
  -13.006540
  -12.608692
  -12.801953
  -12.630898
  -12.602759
  -13.139441
  -12.644521
  -12.810746
  -12.655379
  -12.876475
  -12.662578
  -12.979519
  -12.634935
  -12.649822
  -13.090334
  -12.841714
  -12.675067
  -12.947619
  -12.614577
  -13.156787
  -12.838387
  -12.636657
  -12.494109
  -13.070505
  -12.659922
  -12.689236
  -12.862344
  -12.647017
  -12.628722
  -12.909720
  -12.829433
  -13.248934
  -12.641224
  -12.716468
  -13.037379
  -12.836045
  -12.699692
  -12.743430
  -13.177457
  -12.667151
  -12.609503
  -12.992360
  -12.824117
  -12.752701
  -13.265242
  -12.678676
  -12.744478
  -13.143084
  -12.673484
  -12.699259
  -12.697088
  -12.846470
  -12.934929
  -12.886548
  -12.675458
  -13.331728
  -12.837558
  -12.790087
  -13.094084
  -12.668981
  -12.825001
  -12.772018
  -12.849665
  -13.267349
  -12.567344
  -13.368129
  -13.027173
  -13.380482
  -12.721645
  -12.671698
  -12.841790
  -12.848745
  -13.217235
  -12.822781
  -12.657084
  -13.645724
  -12.967076
  -12.700268
  -12.861583
  -13.453799
  -12.789607
  -12.922754
  -12.682293
  -13.150600
  -12.882441
  -13.373350
  -12.930194
  -12.849549
  -12.719103
  -12.859187
  -12.881158
  -13.054423
  -12.745890
  -13.598948
  -13.532631
  -13.301553
  -12.695976
  -13.001309
  -12.859099
  -12.681670
  -12.983561
  -12.852981
  -12.711272
  -12.853924
  -13.738868
  -13.051378
  -13.216408
  -12.876135
  -13.475922
  -12.655256
  -12.809260
  -13.037557
  -13.090689
  -12.991912
  -12.627792
  -12.789950
  -13.065064
  -13.722161
  -12.849208
  -13.100781
  -13.400784
  -12.638682
  -13.670277
  -12.813802
  -13.117702
  -12.944867
  -12.941230
  -13.194554
  -13.290401
  -12.618202
  -12.690988
  -12.800172
  -13.972588
  -13.626123
  -12.634562
  -13.134164
  -13.253238
  -14.063481
  -12.722622
  -13.144482
  -12.873987
  -13.899355
  -12.594506
  -13.547779
  -13.271350
  -12.756347
  -12.909229
  -13.857193
  -13.258410
  -13.346996
  -13.308562
  -12.637181
  -14.088586
  -13.446626
  -13.408334
  -12.698614
  -12.616946
  -13.807191
  -12.774350
  -13.204202
  -12.770511
  -13.347356
  -13.290359
  -13.471348
  -12.685027
  -13.954835
  -14.045728
  -12.784037
  -13.780438
  -13.503615
  -12.684350
  -14.043367
  -12.925356
  -13.514692
  -13.105400
  -14.139427
  -13.152566
  -13.541935
  -13.762259
  -13.631631