# vtk DataFile Version 2.0
FSI_Simulation
ASCII

DATASET UNSTRUCTURED_GRID
POINTS 2042 double
  2.500000  0.410000  0.000000
  2.450000  0.410000  0.000000
  2.500000  0.358750  0.000000
  2.455000  0.345150  0.000000
  2.400000  0.410000  0.000000
  2.500000  0.307500  0.000000
  2.409170  0.352960  0.000000
  2.425000  0.303110  0.000000
  2.350000  0.410000  0.000000
  2.359860  0.354270  0.000000
  2.500000  0.256250  0.000000
  2.450000  0.259810  0.000000
  2.375000  0.303110  0.000000
  2.400000  0.259810  0.000000
  2.300000  0.410000  0.000000
  2.500000  0.205000  0.000000
  2.325000  0.303110  0.000000
  2.425000  0.216510  0.000000
  2.300000  0.346410  0.000000
  2.350000  0.259810  0.000000
  2.375000  0.216510  0.000000
  2.450000  0.173210  0.000000
  2.275000  0.303110  0.000000
  2.250000  0.410000  0.000000
  2.300000  0.259810  0.000000
  2.500000  0.153750  0.000000
  2.400000  0.173210  0.000000
  2.250000  0.346410  0.000000
  2.325000  0.216510  0.000000
  2.350000  0.173210  0.000000
  2.429170  0.133880  0.000000
  2.250000  0.259810  0.000000
  2.225000  0.303110  0.000000
  2.275000  0.216510  0.000000
  2.200000  0.410000  0.000000
  2.197270  0.363510  0.000000
  2.375000  0.129900  0.000000
  2.500000  0.102500  0.000000
  2.300000  0.173210  0.000000
  2.450000  0.086600  0.000000
  2.325000  0.129900  0.000000
  2.200000  0.259810  0.000000
  2.225000  0.216510  0.000000
  2.400000  0.086600  0.000000
  2.250000  0.173210  0.000000
  2.170490  0.306770  0.000000
  2.150000  0.410000  0.000000
  2.350000  0.086600  0.000000
  2.500000  0.051250  0.000000
  2.275000  0.129900  0.000000
  2.135420  0.358250  0.000000
  2.429170  0.044630  0.000000
  2.175000  0.216510  0.000000
  2.300000  0.086600  0.000000
  2.150000  0.259810  0.000000
  2.200000  0.173210  0.000000
  2.375000  0.043300  0.000000
  2.225000  0.129900  0.000000
  2.112500  0.313250  0.000000
  2.100000  0.410000  0.000000
  2.325000  0.043300  0.000000
  2.250000  0.086600  0.000000
  2.500000  0.000000  0.000000
  2.450000  0.000000  0.000000
  2.125000  0.216510  0.000000
  2.400000  0.000000  0.000000
  2.150000  0.173210  0.000000
  2.075000  0.366700  0.000000
  2.175000  0.129900  0.000000
  2.275000  0.043300  0.000000
  2.087500  0.269950  0.000000
  2.350000  0.000000  0.000000
  2.200000  0.086600  0.000000
  2.050000  0.410000  0.000000
  2.300000  0.000000  0.000000
  2.050000  0.323400  0.000000
  2.225000  0.043300  0.000000
  2.100000  0.173210  0.000000
  2.125000  0.129900  0.000000
  2.062500  0.226650  0.000000
  2.150000  0.086600  0.000000
  2.025000  0.366700  0.000000
  2.250000  0.000000  0.000000
  2.175000  0.043300  0.000000
  2.025000  0.280100  0.000000
  2.000000  0.410000  0.000000
  2.000000  0.323400  0.000000
  2.200000  0.000000  0.000000
  2.070830  0.133290  0.000000
  2.100000  0.086600  0.000000
  2.037500  0.183350  0.000000
  2.125000  0.043300  0.000000
  1.975000  0.366700  0.000000
  2.000000  0.236790  0.000000
  2.150000  0.000000  0.000000
  1.975000  0.280100  0.000000
  1.950000  0.410000  0.000000
  2.050000  0.086600  0.000000
  1.950000  0.323400  0.000000
  2.012500  0.140050  0.000000
  2.075000  0.043300  0.000000
  1.975000  0.193490  0.000000
  2.100000  0.000000  0.000000
  1.925000  0.366700  0.000000
  1.950000  0.236790  0.000000
  1.925000  0.280100  0.000000
  2.000000  0.086600  0.000000
  1.900000  0.410000  0.000000
  2.025000  0.043300  0.000000
  1.900000  0.323400  0.000000
  1.950000  0.150190  0.000000
  2.050000  0.000000  0.000000
  1.925000  0.193490  0.000000
  1.900000  0.236790  0.000000
  1.875000  0.366700  0.000000
  1.875000  0.280100  0.000000
  1.975000  0.043300  0.000000
  1.937500  0.096750  0.000000
  2.000000  0.000000  0.000000
  1.850000  0.410000  0.000000
  1.902380  0.145780  0.000000
  1.850000  0.323400  0.000000
  1.875000  0.193490  0.000000
  1.850000  0.236790  0.000000
  1.820830  0.365370  0.000000
  1.925000  0.043300  0.000000
  1.950000  0.000000  0.000000
  1.800000  0.410000  0.000000
  1.850000  0.150190  0.000000
  1.877180  0.088810  0.000000
  1.810710  0.280600  0.000000
  1.800000  0.323400  0.000000
  1.820830  0.195410  0.000000
  1.800000  0.236790  0.000000
  1.900000  0.000000  0.000000
  1.875360  0.035430  0.000000
  1.825000  0.106890  0.000000
  1.800000  0.150190  0.000000
  1.750000  0.410000  0.000000
  1.750000  0.358750  0.000000
  1.750000  0.307500  0.000000
  1.750000  0.256250  0.000000
  1.825000  0.043300  0.000000
  1.850000  0.000000  0.000000
  1.750000  0.205000  0.000000
  1.793300  0.076870  0.000000
  1.750000  0.153750  0.000000
  1.700640  0.410000  0.000000
  1.704300  0.327190  0.000000
  1.750000  0.102500  0.000000
  1.800000  0.000000  0.000000
  1.706240  0.242410  0.000000
  1.676060  0.366700  0.000000
  1.679550  0.284150  0.000000
  1.704500  0.168810  0.000000
  1.750000  0.051250  0.000000
  1.682040  0.198780  0.000000
  1.655740  0.327710  0.000000
  1.651490  0.410000  0.000000
  1.750000  0.000000  0.000000
  1.656690  0.241750  0.000000
  1.703750  0.082910  0.000000
  1.678980  0.125940  0.000000
  1.627030  0.366700  0.000000
  1.631170  0.284620  0.000000
  1.654610  0.169080  0.000000
  1.632070  0.198270  0.000000
  1.607330  0.328120  0.000000
  1.602560  0.410000  0.000000
  1.700280  0.000000  0.000000
  1.675600  0.043300  0.000000
  1.655160  0.082380  0.000000
  1.606810  0.241470  0.000000
  1.630810  0.125620  0.000000
  1.578220  0.366700  0.000000
  1.582990  0.284920  0.000000
  1.604730  0.168150  0.000000
  1.578920  0.210800  0.000000
  1.650920  0.000000  0.000000
  1.559000  0.328320  0.000000
  1.553870  0.410000  0.000000
  1.626430  0.043300  0.000000
  1.606660  0.082260  0.000000
  1.556930  0.242380  0.000000
  1.582820  0.125810  0.000000
  1.529630  0.366700  0.000000
  1.534940  0.284960  0.000000
  1.555320  0.166880  0.000000
  1.601940  0.000000  0.000000
  1.530950  0.199810  0.000000
  1.577650  0.043300  0.000000
  1.510670  0.328200  0.000000
  1.505400  0.410000  0.000000
  1.558080  0.082770  0.000000
  1.534730  0.126670  0.000000
  1.507460  0.243800  0.000000
  1.481280  0.366700  0.000000
  1.486910  0.284640  0.000000
  1.506480  0.166500  0.000000
  1.553350  0.000000  0.000000
  1.529250  0.043300  0.000000
  1.482130  0.200990  0.000000
  1.462240  0.327690  0.000000
  1.457160  0.410000  0.000000
  1.509220  0.083990  0.000000
  1.486020  0.128110  0.000000
  1.458500  0.244760  0.000000
  1.433170  0.366700  0.000000
  1.438620  0.283990  0.000000
  1.458930  0.158770  0.000000
  1.505150  0.000000  0.000000
  1.481250  0.043300  0.000000
  1.434180  0.201480  0.000000
  1.459870  0.085670  0.000000
  1.413590  0.326890  0.000000
  1.409170  0.410000  0.000000
  1.409940  0.244800  0.000000
  1.385300  0.366700  0.000000
  1.389560  0.283370  0.000000
  1.409090  0.158420  0.000000
  1.457350  0.000000  0.000000
  1.433650  0.043300  0.000000
  1.386550  0.201040  0.000000
  1.410050  0.086600  0.000000
  1.364750  0.326450  0.000000
  1.361420  0.410000  0.000000
  1.361460  0.243860  0.000000
  1.337670  0.366700  0.000000
  1.409950  0.000000  0.000000
  1.338650  0.284240  0.000000
  1.386460  0.043300  0.000000
  1.354150  0.119670  0.000000
  1.313920  0.410000  0.000000
  1.316290  0.328550  0.000000
  1.332940  0.164270  0.000000
  1.312360  0.242750  0.000000
  1.362970  0.000000  0.000000
  1.290300  0.366700  0.000000
  1.295390  0.283330  0.000000
  1.339680  0.043300  0.000000
  1.325730  0.078680  0.000000
  1.304410  0.123360  0.000000
  1.266670  0.410000  0.000000
  1.266740  0.323400  0.000000
  1.272670  0.239000  0.000000
  1.283210  0.168120  0.000000
  1.316400  0.000000  0.000000
  1.243180  0.366700  0.000000
  1.246180  0.281190  0.000000
  1.293330  0.043300  0.000000
  1.277840  0.081590  0.000000
  1.256410  0.126460  0.000000
  1.219690  0.410000  0.000000
  1.219750  0.323400  0.000000
  1.233390  0.170720  0.000000
  1.222230  0.237350  0.000000
  1.270260  0.000000  0.000000
  1.196320  0.366700  0.000000
  1.247400  0.043300  0.000000
  1.196390  0.280100  0.000000
  1.229040  0.084940  0.000000
  1.205650  0.129050  0.000000
  1.189490  0.207370  0.000000
  1.172960  0.410000  0.000000
  1.173020  0.323400  0.000000
  1.224540  0.000000  0.000000
  1.181510  0.158020  0.000000
  1.201900  0.043300  0.000000
  1.149720  0.366700  0.000000
  1.179360  0.086600  0.000000
  1.143430  0.291070  0.000000
  1.144660  0.247780  0.000000
  1.126490  0.410000  0.000000
  1.142770  0.189580  0.000000
  1.179250  0.000000  0.000000
  1.134770  0.140320  0.000000
  1.156830  0.043300  0.000000
  1.103400  0.366700  0.000000
  1.100860  0.316520  0.000000
  1.099450  0.268150  0.000000
  1.103580  0.220000  0.000000
  1.080300  0.410000  0.000000
  1.096330  0.172140  0.000000
  1.134410  0.000000  0.000000
  1.100760  0.105310  0.000000
  1.058360  0.324420  0.000000
  1.099400  0.056460  0.000000
  1.059350  0.282410  0.000000
  1.062400  0.233330  0.000000
  1.051490  0.361960  0.000000
  1.062400  0.206670  0.000000
  1.062400  0.140000  0.000000
  1.034380  0.410000  0.000000
  1.090000  0.000000  0.000000
  1.032380  0.305960  0.000000
  1.027830  0.333570  0.000000
  1.033760  0.246670  0.000000
  1.028220  0.281830  0.000000
  1.059860  0.078570  0.000000
  1.030770  0.220170  0.000000
  1.033760  0.193330  0.000000
  1.015410  0.368300  0.000000
  1.056850  0.040910  0.000000
  1.013850  0.293330  0.000000
  1.011380  0.313820  0.000000
  1.013850  0.280000  0.000000
  1.013850  0.266670  0.000000
  1.013850  0.240000  0.000000
  1.012290  0.252000  0.000000
  1.025480  0.152840  0.000000
  1.013850  0.226670  0.000000
  1.028350  0.124560  0.000000
  1.002130  0.333160  0.000000
  1.012290  0.214670  0.000000
  1.013850  0.200000  0.000000
  1.032380  0.094040  0.000000
  1.000000  0.300000  0.000000
  1.012290  0.188000  0.000000
  1.013850  0.173330  0.000000
[...]
POINT_DATA 2042
SCALARS pressure double
LOOKUP_TABLE default
  0.192365
  0.040845
  -0.069239
  -0.021812
  0.293815
  0.130083
  0.168903
  0.007682
  -0.080846
  0.091743
  0.020764
  0.022979
  0.066863
  0.049707
  -0.272781
  -0.044637
  0.128249
  0.048144
  -0.053314
  0.131274
  0.108159
  0.059072
  0.271361
  0.484970
  0.192981
  0.039835
  0.099773
  0.217297
  0.158963
  0.143991
  0.066729
  0.167180
  0.148697
  0.179057
  0.355292
  0.367035
  0.132889
  -0.009750
  0.177651
  0.067791
  0.169329
  0.237181
  0.257826
  0.156590
  0.230888
  0.377658
  0.124917
  0.183028
  -0.037497
  0.209346
  0.277472
  0.175471
  0.272329
  0.215290
  0.299053
  0.252237
  0.196224
  0.234816
  0.314452
  0.422459
  0.198214
  0.241221
  -0.192203
  0.092468
  0.338574
  0.169479
  0.300162
  0.441957
  0.278809
  0.222596
  0.316253
  0.196135
  0.280360
  0.425545
  0.220551
  0.440032
  0.250621
  0.335091
  0.309024
  0.368431
  0.308769
  0.445788
  0.256036
  0.277403
  0.396629
  0.444311
  0.439136
  0.281542
  0.345841
  0.338798
  0.374293
  0.310264
  0.446500
  0.412797
  0.321096
  0.410571
  0.479661
  0.363104
  0.458082
  0.384960
  0.334590
  0.417469
  0.341630
  0.472010
  0.436667
  0.446086
  0.374165
  0.555019
  0.360390
  0.479777
  0.434366
  0.355500
  0.442044
  0.463049
  0.525476
  0.457714
  0.349718
  0.469938
  0.354585
  0.605597
  0.464321
  0.479344
  0.472323
  0.462915
  0.434269
  0.444686
  0.282775
  0.286793
  0.509305
  0.457150
  0.511482
  0.519515
  0.461321
  0.490601
  0.810098
  0.625172
  0.485091
  0.494108
  0.340161
  0.417929
  0.485157
  0.514657
  0.479464
  0.530712
  0.537156
  0.521412
  0.513790
  0.581455
  0.531502
  0.489040
  0.309708
  0.542885
  0.649576
  0.577609
  0.539566
  0.397732
  0.566417
  0.610829
  0.623154
  0.339843
  0.594619
  0.531585
  0.581137
  0.656251
  0.619956
  0.592614
  0.614723
  0.644123
  0.652514
  0.569806
  0.642081
  0.607035
  0.632817
  0.632012
  0.663482
  0.641646
  0.626872
  0.650648
  0.622658
  0.672626
  0.678845
  0.653095
  0.642051
  0.666578
  0.654894
  0.686930
  0.671151
  0.658591
  0.663349
  0.680511
  0.665551
  0.698675
  0.701611
  0.674002
  0.690559
  0.694743
  0.706846
  0.694829
  0.681636
  0.690403
  0.687344
  0.706753
  0.722444
  0.723517
  0.701671
  0.722012
  0.719837
  0.727736
  0.723087
  0.705285
  0.710098
  0.704160
  0.724322
  0.751470
  0.745323
  0.744872
  0.750688
  0.749291
  0.748492
  0.739033
  0.737170
  0.723479
  0.754071
  0.753302
  0.769547
  0.765860
  0.768674
  0.765535
  0.839371
  0.783471
  0.772189
  0.780054
  0.806442
  0.795169
  0.793533
  0.788604
  0.784638
  0.798440
  0.803418
  0.752518
  0.820222
  0.796347
  0.844364
  0.816163
  0.822490
  0.805325
  0.837659
  0.816847
  0.820700
  0.800306
  0.830937
  0.825619
  0.866008
  0.861673
  0.828093
  0.808289
  0.910789
  0.835851
  0.815387
  0.864070
  0.862939
  0.786162
  0.814594
  0.948421
  0.865686
  0.972294
  0.862547
  0.886353
  0.876445
  0.771775
  0.891070
  0.881815
  0.979284
  0.857151
  1.017863
  0.934848
  0.704813
  0.831652
  0.903074
  0.865963
  0.865885
  0.761097
  0.847772
  0.716814
  0.874110
  0.936558
  0.686245
  0.904264
  0.929817
  0.871082
  0.915642
  0.833625
  0.972496
  0.771391
  0.904630
  0.923028
  0.937999
  0.937213
  0.844593
  0.945270
  0.918420
  0.869195
  0.550636
  0.964488
  0.941210
  0.961974
  0.955235
  0.954626
  0.957123
  0.915010
  0.955271
  0.873811
  1.049284
  0.951637
  0.938777
  0.790357
  0.962711
  0.927520
  0.925012
  0.965497
  0.966554
  0.966113
  0.933243
  0.965850
  0.689067
  0.927750
  0.986810
  0.964640
  0.576709
  0.996651
  0.921130
  0.963401
  0.980970
  0.957070
  0.913593
  0.950559
  0.897572
  0.978274
  0.946654
  0.978432
  0.945997
  0.945529
  0.977273
  0.842596
  0.972437
  0.941348
  0.983163
  0.971749
  0.983098
  0.985123
  0.934072
  0.954095
  0.971255
  0.911383
  0.963483
  0.983473
  0.907947
  0.982448
  0.990277
  0.988515
  0.968173
  0.957229
  0.967832
  0.976209
  0.998336
  0.985133
  0.974702
  0.994996
  0.938896
  0.954309
  0.998832
  0.969335
  0.993388
  0.936412
  0.979565
  0.987546
  1.011849
  0.994426
  0.938510
  1.003445
  1.001280
  0.973145
  1.006451
  0.984690
  1.012599
  0.992097
  0.960786
  1.003100
  0.998965
  1.007819
  1.049134
  0.971149
  1.011551
  0.846520
  0.987444
  1.094323
  0.995485
  0.982324
  1.002387
  1.021273
  1.173369
  1.008619
  1.012578
  0.961844
  1.016450
  0.991183
  1.019440
  1.000503
  1.006241
  1.055469
  0.990225
  1.016725
  1.013695
  1.021160
  1.024277
  1.062057
  0.995620
  1.004939
  1.011788
  1.002103
  1.017328
  1.031151
  1.022265
  1.026032
  0.997609
  1.029897
  1.144802
  1.031501
  1.017297
  1.021965
  1.012870
  1.011634
  1.030821
  1.028248
  1.028235
  1.033958
  1.037589
  1.022972
  1.023809
  1.028384
  0.978144
  1.032424
  1.022230
  1.039540
  1.036817
  1.028221
  1.039778
  1.041617
  0.970278
  1.043588
  1.034444
  1.032036
  1.038625
  1.014443
  1.042011
  1.031255
  1.044593
  1.047433
  1.090071
  1.048468
  1.059966
  1.051766
  1.041708
  1.044671
  1.047906
  1.099835
  1.042851
  1.052600
  1.047866
  1.051542
  1.049079
  1.055143
  1.055400
  1.050957
  1.053918
  1.050706
  1.056927
  1.055844
  1.051149
  1.058931
  1.020193
  1.061064
  1.061479
  1.107223
  1.062331
  1.058728
  1.060785
  1.063335
  1.065469
  1.061594
  1.066697
  1.061352
  1.080218
  1.067121
  1.067521
  1.066616
  1.068243
  1.085331
  1.066946
  1.069584
  1.068033
  1.072308
  1.078298
  1.073675
  1.073626
  1.093635
  1.108776
  1.075315
  1.075434
  1.076402
  1.073958
  1.080501
  1.078968
  1.081188
  1.079339
  1.077272
  1.063053
  1.081100
  1.081980
  1.082640
  1.085219
  1.080966
  1.087713
  1.087973
  1.088623
  1.095031
  1.012445
  1.088256
  1.090596
  1.088621
  1.087932
  1.092100
  1.094579
  1.090600
  1.096059
  1.096100
  1.085995
  1.087248
  1.095031
  1.049734
  1.093636
  1.097998
  1.095185
  1.100747
  1.103593
  1.103224
  1.102727
  1.092857
  1.091319
  1.096772
  1.101345
  1.101741
  1.103653
  1.106967
  1.078838
  1.110432
  1.099458
  1.112116
  1.014530
  1.111239
  1.092386
  1.087919
  1.109561
  1.106547
  1.109553
  1.082712
  1.113225
  1.114589
  1.116545
  1.119901
  1.118915
  1.119082
  1.103497
  1.099103
  1.163941
  1.107601
  1.115308
  1.118332
  1.122572
  1.126082
  1.115367
  1.128395
  0.993254
  1.127220
  1.110389
  1.117381
  1.102186
  1.124823
  1.124232
  1.128851
  1.132615
  1.136705
  1.135395
  1.089486
  1.135185
  1.128629
  1.114450
  1.100092
  1.133747
  1.138329
  1.142607
  1.128049
  1.145863
  1.119323
  1.143696
  1.126187
  1.132471
  1.112271
  1.140694
  1.124957
  1.143884
  1.137913
  1.148358
  1.153685
  1.132487
  1.152445
  1.111235
  1.131890
  1.152541
  1.106753
  1.143553
  1.125133
  1.153965
  1.148559
  1.159779
  1.164077
  1.142255
  1.149407
  1.160903
  1.124281
  1.159008
  1.137436
  1.150204
  1.159437
  1.164588
  1.172105
  1.171015
  1.249371
  1.128058
  1.169896
  1.158362
  1.136156
  1.147146
  1.139870
  1.176641
  1.169355
  1.165101
  1.246015
  1.149903
  1.184566
  1.156035
  1.162288
  1.179581
  1.132886
  1.176040
  1.169170
  1.180431
  1.174049
  1.191011
  1.192210
  1.198319
  1.188851
  1.167028
  1.123706
  1.178581
  1.162563
  1.183903
  1.177262
  1.194281
  1.155926
  1.205551
  1.086568
  1.179861
  1.200923
  1.141725
  1.195471
  1.176542
  1.186900
  1.195875
  1.181261
  1.211206
  1.124107
  1.197503
  1.214676
  1.210922
  1.195452
  1.192709
  1.128177
  1.176687
  1.197935
  1.190231
  1.166469
  1.210662
  1.239824
  1.229505
  1.186659
  1.223041
  1.169203
  1.216215
  1.193864
  1.174685
  1.199185
  1.210290
  1.193342
  1.230024
  1.241132
  1.204232
  1.166572
  1.231096
  1.193491
  1.213376
  1.190168
  1.171025
  1.225731
  1.210023
  1.200037
  1.252986
  1.186272
  1.198245
  1.247900
  1.018550
  1.235208
  1.169312
  1.207751
  1.185626
  1.209143
  1.223109
  1.246990
  1.200716
  1.170847
  1.268118
  1.254038
  1.230149
  1.199560
  1.201715
  1.219656
  1.206160
  1.179343
  1.239796
  1.006268
  1.231815
  1.273086
  1.202860
  1.272468
  1.256385
  1.170220
  1.221006
  1.203633
  1.194026
  1.215909
  1.233148
  1.262575
  1.208435
  1.290254
  1.277568
  1.172625
  1.246291
  1.210161
  1.207442
  1.211760
  1.182538
  1.226878
  1.250739
  1.208445
  1.289593
  1.201601
  1.160412
  1.297732
  1.275439
  1.162278
  1.233045
  1.200740
  1.220518
  1.240256
  1.273596
  1.309383
  1.167467
  1.300203
  1.261949
  1.217510
  1.204845
  1.183591
  1.230482
  1.213108
  1.257772
  1.214160
  1.301275
  1.317790
  1.205488
  1.159840
  1.293818
  1.160247
  1.241408
  1.200364
  1.220363
  1.243357
  1.281170
  1.195345
  1.325091
  1.319354
  1.232400
  1.137401
  1.272643
  1.198228
  1.219839
  1.230226
  1.210155
  1.260008
  1.308648
  1.179223
  1.334497
  1.206116
  1.073676
  1.305688
  1.146837
  1.246792
  1.217121
  1.242013
  1.281932
  1.198774
  1.338579
  1.126178
  1.329179
  1.279975
  1.194435
  1.218849
  1.167863
  1.225394
  1.203347
  1.257335
  1.310280
  1.181765
  1.347559
  1.197439
  1.308007
  1.145944
  1.177593
  1.245348
  1.162845
  1.196384
  1.210188
  1.235321
  1.278376
  1.341145
  1.332651
  1.163303
  1.151196
  1.275225
  1.188000
  1.191260
  1.210078
  1.172907
  1.217044
  1.191240
  1.247684
  1.307486
  1.187674
  1.347294
  1.162732
  1.302190
  1.234646
  1.153037
  1.178049
  1.181005
  1.197982
  1.222583
  1.265105
  1.342562
  1.152180
  1.174491
  1.318161
  1.166230
  1.259455
  1.194392
  1.157976
  1.200465
  1.231165
  1.287248
  1.180732
  1.344804
  1.086240
  1.272191
  1.212989
  0.874273
  1.140613
  1.163361
  1.203101
  1.183321
  1.243949
  1.320288
  1.137726
  1.294266
  1.226076
  1.168483
  1.164969
  1.138327
  1.262049
  1.136717
  1.183614
  1.203803
  1.169191
  1.313341
  1.170232
  1.235667
  1.093143
  1.171228
  1.126911
  1.132879
  1.146228
  1.119129
  1.167453
  1.177519
  1.276630
  1.203687
  1.249575
  1.176031
  1.161006
  1.112134
  1.120103
  1.106295
  1.159394
  1.166739
  1.158141
  1.196622
  1.156569
  1.265302
  1.181340
  1.116700
  1.091899
  1.103191
  1.093526
  1.145175
  1.145941
  1.186014
  1.150786
  1.209197
  1.095761
  1.151640
  1.101995
  1.056725
  1.072880
  1.131699
  1.124312
  1.138232
  1.108393
  1.084386
  1.135451
  1.068032
  1.022093
  1.087378
  1.043963
  1.066318
  1.103404
  1.122281
  1.121875
  1.108647
  1.095548
  1.058764
  0.996231
  1.096813
  1.134188
  1.152466
  1.029268
  1.041650
  1.157358
  1.041573
  0.934652
  1.063660
  1.105182
  1.070985
  1.118237
  0.940288
  1.070147
  1.041701
  0.984862
  0.908572
  1.131184
  1.102021
  0.886466
  1.076862
  1.005986
  1.113709
  1.124611
  0.880939
  1.068520
  1.012524
  0.918827
  1.048302
  1.078809
  1.034596
  1.105156
  0.777076
  0.780617
  1.058050
  1.085190
  0.701185
  1.022878
  0.867936
  0.729042
  1.045499
  0.970581
  0.778811
  0.931361
  1.105900
  0.986783
  1.041464
  1.052852
  1.133744
  0.589256
  0.611095
  1.057680
  1.084060
  0.999810
  0.869400
  0.632110
  0.747394
  0.576310
  1.077790
  0.609699
  1.195857
  1.052720
  0.851776
  1.011840
  1.022533
  0.945300
  0.933493
  0.591258
  0.601011
  0.760920
  0.612318
  1.089728
  1.045754
  0.606039
  1.107392
  0.688312
  1.043359
  0.693750
  1.070360
  0.980252
  0.865316
  0.741898
  1.043686
  0.764520
  0.904448
  1.075008
  0.807399
  1.021072
  0.775205
  1.134392
  0.801090
  1.014405
  0.983749
  0.927832
  0.784108
  1.081801
  0.817606
  1.067990
  1.045951
  1.107308
  0.820402
  0.833556
  1.083729
  0.940645
  1.062376
  0.981831
  0.880938
  0.893526
  1.017805
  1.122671
  0.823900
  0.862458
  1.096528
  1.038210
  0.853122
  0.846309
  0.876282
  0.870936
  0.994672
  0.943817
  1.073733
  1.053962
  1.113562
  1.013981
  0.864409
  0.924159
  1.091001
  0.967433
  0.908200
  1.061240
  0.895633
  0.919436
  1.032398
  1.055517
  0.990805
  0.935567
  1.105672
  0.899881
  1.038422
  0.918612
  0.912178
  1.010212
  0.910882
  0.918803
  0.971381
  1.077589
  1.062812
  1.023622
  1.140301
  0.926195
  0.981304
  0.923953
  1.058248
  0.956763
  0.956554
  1.047589
  1.009081
  1.208474
  0.931348
  1.108815
  1.047739
  1.090230
  0.978015
  0.964107
  0.970765
  1.032650
  0.997866
  1.139673
  1.145407
  0.982758
  0.982561
  1.070790
  1.076306
  1.038247
  0.980517
  1.007878
  1.069447
  1.283883
  0.999409
  0.989249
  0.997067
  1.192576
  1.069492
  1.030204
  1.001889
  1.105247
  1.157341
  1.061261
  1.006393
  1.104277
  1.075193
  1.068015
  1.024539
  1.071899
  1.003867
  1.025330
  1.024964
  1.095955
  1.056673
  1.111126
  1.014667
  1.040356
  1.024513
  1.076337
  1.017866
  1.100914
  1.054808
  1.062284
  1.019168
  1.025583
  1.107360
  1.075601
  1.029855
  1.027787
  1.118092
  1.043703
  1.091716
  1.054599
  1.095866
  1.115396
  1.071165
  1.035099
  1.116624
  1.076410
  1.066942
  1.102089
  1.093521
  1.036110
  1.071264
  1.053997
  1.120341
  1.079097
  1.151647
  1.094123
  1.052569
  1.066299
  1.143052
  1.247847
  1.075337
  1.121959
  1.083470
  1.092277
  1.111779
  1.145672
  1.098744
  1.076916
  1.158680
  1.083952
  1.101188
  1.106749
  1.116845
  1.085526
  1.158820
  1.161064
  1.086043
  1.106565
  1.140223
  1.182204
  1.112819
  1.165312
  1.164549
  1.153979
  1.102949
  1.168971
  1.174474
  1.116015
  1.125715
  1.214335
  1.183760
  1.127889
  1.184894
  1.177669
  1.065361
  1.119991
  1.121059
  1.125893
  1.182410
  1.135771
  1.127642
  1.197062
  1.192095
  1.132475
  1.143512
  1.129215
  1.195705
  1.188813
  1.203377
  1.191184
  1.147275
  1.136015
  1.158141
  1.214084
  1.213599
  1.141943
  1.206411
  1.181477
  1.133107
  1.207456
  1.219675
  1.167210
  1.224730
  1.239978
  1.158279
  1.136905
  1.190080
  1.185070
  1.227523
  1.146837
  1.225976
  1.207046
  1.197264
  1.242051
  1.138607
  1.240335
  1.107296
  1.177890
  1.258595
  1.166348
  1.212845
  1.200316
  1.154733
  1.247050
  1.227565
  1.147341
  1.202467
  1.178460
  1.230111
  1.273159
  1.275839
  1.190133
  1.167832
  1.290090
  1.238368
  1.258069
  1.211946
  1.233188
  1.306821
  1.239860
  1.140686
  1.218498
  1.327345
  1.287715
  1.190811
  1.196035
  1.254520
  1.163583
  1.265658
  1.250763
  1.344924
  1.183120
  1.282545
  1.223372
  1.125902
  1.355254
  1.058249
  1.292946
  1.295910
  1.225082
  1.343992
  1.345522
  1.313638
  1.251080
  1.377889
  1.258675
  1.161605
  1.343733
  1.357475
  1.375237
  1.214429
  1.215414
  1.189297
  1.289597
  1.304329
  1.375914
  1.366515
  1.261723
  1.166522
  1.399572
  1.338759
  1.392494
  1.150849
  1.398110
  1.239905
  1.358687
  1.275398
  1.396697
  1.170652
  1.313255
  1.387411
  1.399987
  1.219287
  1.238900
  1.381202
  1.199656
  1.321684
  1.436944
  1.375597
  1.454472
  1.287587
  1.439917
  1.491247
  1.383336
  1.495150
  1.251064
  1.439579
  1.478922
  1.521364
  1.294602
  1.342238
  1.190571
  1.463305
  1.114797
  1.260264
  1.509715
  1.219786
  1.547408
  1.213662
  1.352254
  1.558424
  1.417725
  1.057633
  1.582734
  1.543311
  1.314455
  1.431095
  1.164215
  1.595607
  1.239128
  1.555863
  1.615229
  1.197733
  1.611394
  1.304753
  1.622590
  1.382511
  1.626869
  1.096037
  1.529518
  1.271670
  1.192290
  1.215755
  1.376606
  1.651561
  0.855188
  1.639397
  1.474235
  1.136905
  1.680945
  1.684473
  1.328271
  1.471015
  1.206036
  1.696408
  1.673591
  1.688944
  1.296647
  1.184734
  1.739910
  1.406798
  1.612919
  1.155332
  1.711823
  1.760229
  1.253926
  1.615006
  1.210815
  1.390048
  1.734324
  1.515354
  1.227450
  1.791303
  1.326725
  1.503376
  1.776043
  1.154578
  1.810773
  1.733625
  1.138076
  1.286879
  1.619098
  1.403378
  1.787680
  1.166182
  1.784848
  1.639996
  1.839656
  1.075881
  1.805672
  1.182910
  1.378011
  1.842412
  1.505494
  1.226134
  1.183171
  1.790524
  1.105626
  1.496407
  1.866727
  1.287356
  1.087605
  1.805926
  1.366170
  1.231113
  1.760524
  1.638981
  1.136314
  1.844192
  1.641768
  1.808024
  1.779494
  1.036177
  1.863555
  1.144269
  1.310096
  1.779374
  1.167146
  1.414948
  1.818257
  1.088993
  0.979100
  0.975922
  1.409786
  0.995209
  1.609874
  1.722440
  1.235325
  1.815770
  1.109362
  1.067608
  1.708749
  0.685368
  1.526072
  1.664066
  1.737412
  0.964851
  1.394567
  1.054514
  1.643590
  1.149264
  1.689334
  0.953521
  1.081337
  1.721769
  1.599294
  1.635385
  1.170998
  1.193332
  1.409013
  0.819828
  0.857660
  0.883516
  1.487577
  0.979802
  1.579292
  1.419177
  0.995072
  1.434541
  1.341278
  1.127955
  0.769634
  0.932234
  0.817343
  1.208062
  0.721020
  1.268509
  1.339622
  0.920563
  0.867066
  0.891235
  1.158303
  1.010471
  0.717015
  0.674402
  1.146513
  0.868144
  0.505395
  0.964969
  0.581144
  1.071881
  0.736165
  0.706775
  0.566531
  0.776094
  0.270992
  0.852442
  0.789742
  0.777105
  0.675593
  0.320264
  0.656705
  0.044314
  0.667179
  0.747450
  0.628911
  0.477774
  0.392679
  0.506100
  0.477990
  -0.082270
  0.711271
  0.322971
  -0.044583
  0.273795
  0.687839
  0.738977
  0.436288
  0.216104
  0.559262
  -0.534944
  0.613616
  0.172379
  0.038483
  -0.203394
  -0.194906
  -0.161349
  -0.230877
  0.073221
  -0.879471
  0.436162
  -0.201810
  1.114758
  0.275886
  -0.362086
  -0.853046
  0.624342
  -0.411236
  -0.141544
  -0.702692
  0.672016
  -1.079724
  0.457974
  -0.823562
  0.077367
  -1.420711
  0.417757
  -0.725563
  -0.841232
  -0.851137
  -0.523806
  -0.866576
  0.945217
  -1.718247
  0.170052
  -1.174092
  0.094479
  -1.625337
  0.444797
  -1.117873
  -1.347073
  -1.195842
  -1.298052
  -1.255322
  -0.343338
  -2.124159
  0.370389
  0.252268
  -0.528397
  -1.513591
  0.707146
  -1.979432
  -1.432618
  -1.451368
  -1.096540
  -1.863330
  -1.578721
  -0.043930
  -1.545476
  -0.095150
  -1.716631
  -2.128226
  0.406150
  -1.827863
  -1.017035
  -1.614027
  -1.773291
  -0.762015
  -2.306355
  0.080725
  0.266030
  -1.669037
  -0.617981
  -1.987326
  -1.729866
  0.547117
  -1.807684
  -1.624946
  -0.382616
  -2.001960
  -1.686190
  -1.773262
  1.000093
  -2.227197
  0.300946
  -0.203048
  -2.126263
  -1.757537
  -1.685776
  -1.259959
  -2.047984
  -1.714267
  -0.068589
  -0.602248
  -1.783874
  -1.073144
  0.821167
  0.177980
  -2.174878
  -2.004459
  -1.800900
  -1.632795
  1.459723
  -1.760927
  -1.775104
  -1.785016
  -0.458153
  -1.926015
  -1.766356
  -1.778596
  0.655227
  -1.631296
  -1.597545
  -1.864002
  -1.808730
  -1.776558
  -1.722337
  -0.276776
  -1.887594
  -1.757094
  1.049927
  -1.713736
  -2.055266
  0.240860
  -1.566962
  -1.734225
  -1.784409
  -1.554087
  -1.594751
  -1.724510
  -1.897532
  -1.785666
  -1.561724
  -1.812864
  -1.916768
  -1.782470
  0.131127
  -0.908993
  -1.545069
  -1.911001
  -0.213435
  -1.905629
  -1.792543
  -1.632890
  -1.912253
  -0.763611
  -1.778029
  -1.925609
  -1.397600
  -1.775544
  -1.974060
  -1.944128
  -1.928833
  -1.896105
  -1.928622
  -1.899028
  -1.928354
  -1.922986
  -1.934788
  -0.250752
  -1.923578
  -1.943651
  -1.934135
  -1.940154
  0.120633
  -1.999311
  -1.917030
  -0.315117
  0.217751
  -1.953599
  -2.050698
  -1.013978
  -0.983134
  -1.751660
  -1.985335
  -1.920628
  -2.101382
  -1.955974
  -2.066717
  -1.982972
  -1.937211
  -2.063227
  0.594453
  0.672104
  -0.198557
  -2.048726
  0.107762
  -2.406051
  -2.154433
  -2.470513
  -2.124023
  -2.108564
  -2.529576
  -2.527901
  -2.166871
  0.251806
  -2.497971
  -0.283125
  1.322250
  -2.108178
  -0.709698
  -1.906411
  -1.077665
  -2.520769
  0.980208
  -2.654018
  -2.887049
  -2.622835
  -2.635400
  -3.023813
  -3.127441
  -3.122226
  -0.007500
  0.993821
  0.123386
  -2.638674
  -2.781055
  -0.582811
  -0.272449
  1.527073
  0.528336
  -1.890789
  -0.902808
  -3.049281
  -3.260077
  -3.250660
  -3.296197