# vtk DataFile Version 2.0
FSI_Simulation
ASCII

DATASET UNSTRUCTURED_GRID
POINTS 2042 double
  2.500000  0.410000  0.000000
  2.450000  0.410000  0.000000
  2.500000  0.358750  0.000000
  2.455000  0.345150  0.000000
  2.400000  0.410000  0.000000
  2.500000  0.307500  0.000000
  2.409170  0.352960  0.000000
  2.425000  0.303110  0.000000
  2.350001  0.410000  0.000000
  2.359861  0.354270  0.000000
  2.500000  0.256250  0.000000
  2.450000  0.259810  0.000000
  2.375001  0.303110  0.000000
  2.400001  0.259810  0.000000
  2.300001  0.410000  0.000000
  2.500000  0.205000  0.000000
  2.325001  0.303110  0.000000
  2.425000  0.216510  0.000000
  2.300001  0.346410  0.000000
  2.350001  0.259810  0.000000
  2.375001  0.216510  0.000000
  2.450000  0.173210  0.000000
  2.275001  0.303110  0.000000
  2.250001  0.410000  0.000000
  2.300001  0.259810  0.000000
  2.500000  0.153750  0.000000
  2.400001  0.173210  0.000000
  2.250001  0.346410  0.000000
  2.325001  0.216510  0.000000
  2.350001  0.173210  0.000000
  2.429170  0.133880  0.000000
  2.250001  0.259810  0.000000
  2.225001  0.303110  0.000000
  2.275001  0.216510  0.000000
  2.200001  0.410000  0.000000
  2.197271  0.363510  0.000000
  2.375001  0.129900  0.000000
  2.500000  0.102500  0.000000
  2.300001  0.173210  0.000000
  2.450000  0.086600  0.000000
  2.325001  0.129900  0.000000
  2.200001  0.259810  0.000000
  2.225001  0.216510  0.000000
  2.400001  0.086600  0.000000
  2.250001  0.173210  0.000000
  2.170492  0.306770  0.000000
  2.150002  0.410000  0.000000
  2.350001  0.086600  0.000000
  2.500000  0.051250  0.000000
  2.275001  0.129900  0.000000
  2.135422  0.358250  0.000000
  2.429170  0.044630  0.000000
  2.175002  0.216510  0.000000
  2.300001  0.086600  0.000000
  2.150002  0.259810  0.000000
  2.200001  0.173210  0.000000
  2.375001  0.043300  0.000000
  2.225001  0.129900  0.000000
  2.112502  0.313250  0.000000
  2.100002  0.410000  0.000000
  2.325001  0.043300  0.000000
  2.250001  0.086600  0.000000
  2.500000  0.000000  0.000000
  2.450000  0.000000  0.000000
  2.125002  0.216510  0.000000
  2.400001  0.000000  0.000000
  2.150002  0.173210  0.000000
  2.075002  0.366700  0.000000
  2.175002  0.129900  0.000000
  2.275001  0.043300  0.000000
  2.087502  0.269950  0.000000
  2.350001  0.000000  0.000000
  2.200001  0.086600  0.000000
  2.050002  0.410000  0.000000
  2.300001  0.000000  0.000000
  2.050002  0.323400  0.000000
  2.225001  0.043300  0.000000
  2.100002  0.173210  0.000000
  2.125002  0.129900  0.000000
  2.062502  0.226650  0.000000
  2.150002  0.086600  0.000000
  2.025002  0.366700  0.000000
  2.250001  0.000000  0.000000
  2.175002  0.043300  0.000000
  2.025002  0.280100  0.000000
  2.000002  0.410000  0.000000
  2.000002  0.323400  0.000000
  2.200001  0.000000  0.000000
  2.070832  0.133290  0.000000
  2.100002  0.086600  0.000000
  2.037502  0.183350  0.000000
  2.125002  0.043300  0.000000
  1.975003  0.366700  0.000000
  2.000002  0.236790  0.000000
  2.150002  0.000000  0.000000
  1.975003  0.280100  0.000000
  1.950003  0.410000  0.000000
  2.050002  0.086600  0.000000
  1.950003  0.323400  0.000000
  2.012502  0.140050  0.000000
  2.075002  0.043300  0.000000
  1.975003  0.193490  0.000000
  2.100002  0.000000  0.000000
  1.925003  0.366700  0.000000
  1.950003  0.236790  0.000000
  1.925003  0.280100  0.000000
  2.000002  0.086600  0.000000
  1.900003  0.410000  0.000000
  2.025002  0.043300  0.000000
  1.900003  0.323400  0.000000
  1.950003  0.150190  0.000000
  2.050002  0.000000  0.000000
  1.925003  0.193490  0.000000
  1.900003  0.236790  0.000000
  1.875003  0.366700  0.000000
  1.875003  0.280100  0.000000
  1.975002  0.043300  0.000000
  1.937503  0.096750  0.000000
  2.000002  0.000000  0.000000
  1.850003  0.410000  0.000000
  1.902383  0.145780  0.000000
  1.850003  0.323400  0.000000
  1.875003  0.193490  0.000000
  1.850003  0.236790  0.000000
  1.820833  0.365370  0.000000
  1.925003  0.043300  0.000000
  1.950003  0.000000  0.000000
  1.800003  0.410000  0.000000
  1.850003  0.150190  0.000000
  1.877183  0.088810  0.000000
  1.810713  0.280600  0.000000
  1.800003  0.323400  0.000000
  1.820833  0.195410  0.000000
  1.800003  0.236790  0.000000
  1.900003  0.000000  0.000000
  1.875363  0.035430  0.000000
  1.825003  0.106890  0.000000
  1.800003  0.150190  0.000000
  1.750004  0.410000  0.000000
  1.750004  0.358750  0.000000
  1.750004  0.307500  0.000000
  1.750004  0.256250  0.000000
  1.825003  0.043300  0.000000
  1.850003  0.000000  0.000000
  1.750004  0.205000  0.000000
  1.793303  0.076870  0.000000
  1.750004  0.153750  0.000000
  1.700644  0.410000  0.000000
  1.704304  0.327190  0.000000
  1.750004  0.102500  0.000000
  1.800003  0.000000  0.000000
  1.706244  0.242410  0.000000
  1.676064  0.366700  0.000000
  1.679554  0.284150  0.000000
  1.704504  0.168810  0.000000
  1.750004  0.051250  0.000000
  1.682044  0.198780  0.000000
  1.655744  0.327710  0.000000
  1.651494  0.410000  0.000000
  1.750004  0.000000  0.000000
  1.656694  0.241750  0.000000
  1.703754  0.082910  0.000000
  1.678984  0.125940  0.000000
  1.627034  0.366700  0.000000
  1.631174  0.284620  0.000000
  1.654614  0.169080  0.000000
  1.632074  0.198270  0.000000
  1.607334  0.328120  0.000000
  1.602564  0.410000  0.000000
  1.700284  0.000000  0.000000
  1.675604  0.043300  0.000000
  1.655164  0.082380  0.000000
  1.606814  0.241470  0.000000
  1.630814  0.125620  0.000000
  1.578224  0.366700  0.000000
  1.582994  0.284920  0.000000
  1.604734  0.168150  0.000000
  1.578924  0.210800  0.000000
  1.650924  0.000000  0.000000
  1.559004  0.328320  0.000000
  1.553875  0.410000  0.000000
  1.626434  0.043300  0.000000
  1.606664  0.082260  0.000000
  1.556934  0.242380  0.000000
  1.582824  0.125810  0.000000
  1.529635  0.366700  0.000000
  1.534945  0.284960  0.000000
  1.555324  0.166880  0.000000
  1.601944  0.000000  0.000000
  1.530955  0.199810  0.000000
  1.577654  0.043300  0.000000
  1.510675  0.328200  0.000000
  1.505405  0.410000  0.000000
  1.558084  0.082770  0.000000
  1.534734  0.126670  0.000000
  1.507465  0.243800  0.000000
  1.481285  0.366700  0.000000
  1.486915  0.284640  0.000000
  1.506485  0.166500  0.000000
  1.553354  0.000000  0.000000
  1.529255  0.043300  0.000000
  1.482135  0.200990  0.000000
  1.462245  0.327690  0.000000
  1.457165  0.410000  0.000000
  1.509225  0.083990  0.000000
  1.486025  0.128110  0.000000
  1.458505  0.244760  0.000000
  1.433175  0.366700  0.000000
  1.438625  0.283990  0.000000
  1.458935  0.158770  0.000000
  1.505155  0.000000  0.000000
  1.481255  0.043300  0.000000
  1.434185  0.201480  0.000000
  1.459875  0.085670  0.000000
  1.413595  0.326890  0.000000
  1.409175  0.410000  0.000000
  1.409945  0.244800  0.000000
  1.385305  0.366700  0.000000
  1.389565  0.283370  0.000000
  1.409095  0.158420  0.000000
  1.457355  0.000000  0.000000
  1.433655  0.043300  0.000000
  1.386555  0.201040  0.000000
  1.410055  0.086600  0.000000
  1.364755  0.326450  0.000000
  1.361425  0.410000  0.000000
  1.361465  0.243860  0.000000
  1.337675  0.366700  0.000000
  1.409955  0.000000  0.000000
  1.338655  0.284240  0.000000
  1.386465  0.043300  0.000000
  1.354155  0.119670  0.000000
  1.313926  0.410000  0.000000
  1.316296  0.328550  0.000000
  1.332945  0.164270  0.000000
  1.312366  0.242750  0.000000
  1.362975  0.000000  0.000000
  1.290306  0.366700  0.000000
  1.295396  0.283330  0.000000
  1.339685  0.043300  0.000000
  1.325735  0.078680  0.000000
  1.304416  0.123360  0.000000
  1.266676  0.410000  0.000000
  1.266746  0.323400  0.000000
  1.272676  0.239000  0.000000
  1.283216  0.168120  0.000000
  1.316405  0.000000  0.000000
  1.243186  0.366700  0.000000
  1.246186  0.281190  0.000000
  1.293336  0.043300  0.000000
  1.277846  0.081590  0.000000
  1.256416  0.126460  0.000000
  1.219696  0.410000  0.000000
  1.219756  0.323400  0.000000
  1.233396  0.170720  0.000000
  1.222236  0.237350  0.000000
  1.270266  0.000000  0.000000
  1.196326  0.366700  0.000000
  1.247406  0.043300  0.000000
  1.196396  0.280100  0.000000
  1.229046  0.084940  0.000000
  1.205656  0.129050  0.000000
  1.189496  0.207370  0.000000
  1.172966  0.410000  0.000000
  1.173026  0.323400  0.000000
  1.224546  0.000000  0.000000
  1.181516  0.158020  0.000000
  1.201906  0.043300  0.000000
  1.149726  0.366700  0.000000
  1.179366  0.086600  0.000000
  1.143436  0.291070  0.000000
  1.144666  0.247780  0.000000
  1.126496  0.410000  0.000000
  1.142776  0.189580  0.000000
  1.179256  0.000000  0.000000
  1.134776  0.140320  0.000000
  1.156836  0.043300  0.000000
  1.103406  0.366700  0.000000
  1.100867  0.316520  0.000000
  1.099457  0.268150  0.000000
  1.103587  0.220000  0.000000
  1.080306  0.410000  0.000000
  1.096337  0.172140  0.000000
  1.134416  0.000000  0.000000
  1.100766  0.105310  0.000000
  1.058367  0.324420  0.000000
  1.099406  0.056460  0.000000
  1.059357  0.282410  0.000000
  1.062407  0.233330  0.000000
  1.051497  0.361960  0.000000
  1.062407  0.206670  0.000000
  1.062407  0.140000  0.000000
  1.034387  0.410000  0.000000
  1.090006  0.000000  0.000000
  1.032387  0.305960  0.000000
  1.027837  0.333570  0.000000
  1.033767  0.246670  0.000000
  1.028227  0.281830  0.000000
  1.059867  0.078570  0.000000
  1.030777  0.220170  0.000000
  1.033767  0.193330  0.000000
  1.015417  0.368300  0.000000
  1.056856  0.040910  0.000000
  1.013857  0.293330  0.000000
  1.011387  0.313820  0.000000
  1.013857  0.280000  0.000000
  1.013857  0.266670  0.000000
  1.013857  0.240000  0.000000
  1.012297  0.252000  0.000000
  1.025487  0.152840  0.000000
  1.013857  0.226670  0.000000
  1.028357  0.124560  0.000000
  1.002137  0.333160  0.000000
  1.012297  0.214670  0.000000
  1.013857  0.200000  0.000000
  1.032387  0.094040  0.000000
  1.000007  0.300000  0.000000
  1.012297  0.188000  0.000000
  1.013857  0.173330  0.000000
[...]
POINT_DATA 2042
SCALARS pressure double
LOOKUP_TABLE default
  0.200937
  0.014620
  -0.054665
  -0.043937
  0.215748
  0.120831
  0.122986
  -0.004690
  -0.122567
  0.047250
  0.011956
  0.014488
  0.031933
  0.025211
  -0.287323
  -0.028604
  0.074239
  0.037070
  -0.081117
  0.091046
  0.078446
  0.044736
  0.200878
  0.398826
  0.141635
  0.020824
  0.071998
  0.169482
  0.117720
  0.105192
  0.039808
  0.123875
  0.093639
  0.127672
  0.283117
  0.301484
  0.093331
  -0.004122
  0.131253
  0.040037
  0.123629
  0.191144
  0.195662
  0.115829
  0.174418
  0.298926
  0.044607
  0.137153
  -0.024644
  0.159651
  0.208072
  0.120353
  0.201927
  0.161509
  0.245267
  0.191847
  0.146777
  0.182473
  0.232204
  0.341845
  0.148291
  0.181405
  -0.159336
  0.054851
  0.263465
  0.126296
  0.237054
  0.370922
  0.222680
  0.169248
  0.253031
  0.148921
  0.214103
  0.356985
  0.166676
  0.349620
  0.193553
  0.269032
  0.245961
  0.291218
  0.233417
  0.371954
  0.197744
  0.215364
  0.329457
  0.379682
  0.358790
  0.214836
  0.277757
  0.256852
  0.305127
  0.242653
  0.371801
  0.329844
  0.239266
  0.343664
  0.398664
  0.277356
  0.379694
  0.311642
  0.266731
  0.339183
  0.256921
  0.389683
  0.351746
  0.373845
  0.301302
  0.449541
  0.297790
  0.392256
  0.361951
  0.287687
  0.363167
  0.379490
  0.434395
  0.380158
  0.279603
  0.388533
  0.288202
  0.493931
  0.377897
  0.388112
  0.389617
  0.380317
  0.356198
  0.373275
  0.228687
  0.237686
  0.424807
  0.378236
  0.428672
  0.412095
  0.382135
  0.406531
  0.693372
  0.527872
  0.396641
  0.404321
  0.291783
  0.349233
  0.399989
  0.436405
  0.385441
  0.425835
  0.435539
  0.426349
  0.422619
  0.474755
  0.443985
  0.406456
  0.249122
  0.446104
  0.527696
  0.459635
  0.445572
  0.327046
  0.460417
  0.508584
  0.508429
  0.294960
  0.500646
  0.439096
  0.470180
  0.539877
  0.507453
  0.489139
  0.499066
  0.527928
  0.535127
  0.476694
  0.525148
  0.511697
  0.528002
  0.521835
  0.546391
  0.527044
  0.514914
  0.540889
  0.519072
  0.549807
  0.552698
  0.539324
  0.534265
  0.544886
  0.542029
  0.565149
  0.557097
  0.543106
  0.548570
  0.562148
  0.547229
  0.571190
  0.575735
  0.559378
  0.575285
  0.570029
  0.583203
  0.580467
  0.562262
  0.568802
  0.567685
  0.583811
  0.594217
  0.599301
  0.583416
  0.596542
  0.589128
  0.601322
  0.605568
  0.588277
  0.593560
  0.584505
  0.597117
  0.625518
  0.615520
  0.624854
  0.613898
  0.620673
  0.626983
  0.617329
  0.634348
  0.614808
  0.625794
  0.628709
  0.636191
  0.653408
  0.619947
  0.638223
  0.735137
  0.650540
  0.649948
  0.643819
  0.678582
  0.660200
  0.655629
  0.640895
  0.662711
  0.657817
  0.669221
  0.618743
  0.671538
  0.652353
  0.697599
  0.675455
  0.668415
  0.665182
  0.709869
  0.671673
  0.672910
  0.660632
  0.668523
  0.668540
  0.700585
  0.708236
  0.677184
  0.653635
  0.732335
  0.687204
  0.650297
  0.708629
  0.692326
  0.626835
  0.656798
  0.765247
  0.704276
  0.736962
  0.710999
  0.713487
  0.715653
  0.605136
  0.737989
  0.721748
  0.813247
  0.700261
  0.787787
  0.770360
  0.557246
  0.689667
  0.736749
  0.698095
  0.699809
  0.634469
  0.681193
  0.570200
  0.708338
  0.766199
  0.557233
  0.732052
  0.755413
  0.711867
  0.743869
  0.667622
  0.800663
  0.631208
  0.723195
  0.748865
  0.757238
  0.752760
  0.677328
  0.763841
  0.740141
  0.697755
  0.412289
  0.770733
  0.753027
  0.773307
  0.768543
  0.768523
  0.769992
  0.734063
  0.769833
  0.697316
  0.849128
  0.766705
  0.755823
  0.626020
  0.768859
  0.745319
  0.741912
  0.774169
  0.776075
  0.776085
  0.748547
  0.775982
  0.543687
  0.744442
  0.791400
  0.775349
  0.433003
  0.797174
  0.739414
  0.774666
  0.780637
  0.769319
  0.731027
  0.763495
  0.712161
  0.780907
  0.759496
  0.784782
  0.758621
  0.758103
  0.784340
  0.663930
  0.779050
  0.754895
  0.786404
  0.780224
  0.788044
  0.788979
  0.747788
  0.763456
  0.779685
  0.727277
  0.772821
  0.785422
  0.720426
  0.787980
  0.792901
  0.792319
  0.776118
  0.767419
  0.775897
  0.783045
  0.798532
  0.789991
  0.765352
  0.796634
  0.750464
  0.764396
  0.798849
  0.776944
  0.795961
  0.747254
  0.785318
  0.792001
  0.807553
  0.796779
  0.750135
  0.801995
  0.801761
  0.779841
  0.804312
  0.789157
  0.805300
  0.795285
  0.768990
  0.803064
  0.800627
  0.805879
  0.857195
  0.780841
  0.806808
  0.676467
  0.791406
  0.869393
  0.797710
  0.786791
  0.803483
  0.814533
  0.916851
  0.807353
  0.810091
  0.771654
  0.811017
  0.794563
  0.811462
  0.801694
  0.806317
  0.840954
  0.793912
  0.813293
  0.811849
  0.815543
  0.815615
  0.834666
  0.804386
  0.805389
  0.810513
  0.802833
  0.815228
  0.818862
  0.817828
  0.820124
  0.801431
  0.820649
  0.937919
  0.820016
  0.814960
  0.818745
  0.811830
  0.811389
  0.823925
  0.823441
  0.814496
  0.825179
  0.824941
  0.827168
  0.820376
  0.823552
  0.769436
  0.827203
  0.818838
  0.821622
  0.828967
  0.825430
  0.830835
  0.829330
  0.786851
  0.827626
  0.828456
  0.826907
  0.831904
  0.800028
  0.834383
  0.827082
  0.834625
  0.835503
  0.857223
  0.832585
  0.850974
  0.830888
  0.834446
  0.836364
  0.839718
  0.896336
  0.834455
  0.840937
  0.823498
  0.840649
  0.839570
  0.839452
  0.835819
  0.841426
  0.844202
  0.841166
  0.846384
  0.822131
  0.841633
  0.846012
  0.798032
  0.846344
  0.841876
  0.883319
  0.838664
  0.847637
  0.849006
  0.852394
  0.851917
  0.848255
  0.852449
  0.832446
  0.862337
  0.860779
  0.849417
  0.853471
  0.844737
  0.848488
  0.853820
  0.856704
  0.854213
  0.859453
  0.844931
  0.856676
  0.857572
  0.868750
  0.887273
  0.852742
  0.847579
  0.861343
  0.859217
  0.864454
  0.865616
  0.864349
  0.862106
  0.845909
  0.854350
  0.860312
  0.855618
  0.865799
  0.869499
  0.864070
  0.872662
  0.868313
  0.870786
  0.856905
  0.785158
  0.863127
  0.874787
  0.870026
  0.858685
  0.873344
  0.878941
  0.870147
  0.878324
  0.876990
  0.868953
  0.853864
  0.871366
  0.837691
  0.864837
  0.877184
  0.873619
  0.881690
  0.887387
  0.883258
  0.880978
  0.856630
  0.859263
  0.865828
  0.873627
  0.880263
  0.880366
  0.884615
  0.843226
  0.892256
  0.876087
  0.893342
  0.792993
  0.889717
  0.870821
  0.855424
  0.883694
  0.874435
  0.882413
  0.852682
  0.888191
  0.889107
  0.894061
  0.902221
  0.897789
  0.894468
  0.867422
  0.875730
  0.927062
  0.873185
  0.884689
  0.890125
  0.896018
  0.905396
  0.884705
  0.908905
  0.756861
  0.903988
  0.879216
  0.881919
  0.864973
  0.894966
  0.891404
  0.898856
  0.906032
  0.918110
  0.912685
  0.856622
  0.907497
  0.893657
  0.873040
  0.865487
  0.899878
  0.907254
  0.918270
  0.893433
  0.925379
  0.883017
  0.917976
  0.883363
  0.892452
  0.868543
  0.906962
  0.891958
  0.908997
  0.899637
  0.917472
  0.930680
  0.876698
  0.928634
  0.868909
  0.895801
  0.921195
  0.874639
  0.903912
  0.877269
  0.917723
  0.909104
  0.930135
  0.939874
  0.896422
  0.907065
  0.933026
  0.870862
  0.920375
  0.886902
  0.907655
  0.918298
  0.927922
  0.943867
  0.943909
  0.945937
  0.869247
  0.934841
  0.911512
  0.880247
  0.904703
  0.861006
  0.940446
  0.926781
  0.918434
  0.986930
  0.890455
  0.954518
  0.902767
  0.914330
  0.947490
  0.872485
  0.931817
  0.918873
  0.936695
  0.926423
  0.954347
  0.959318
  0.945769
  0.947980
  0.917453
  0.858907
  0.925391
  0.902150
  0.934871
  0.924656
  0.949681
  0.888926
  0.965643
  0.814867
  0.924378
  0.962875
  0.871383
  0.944479
  0.914947
  0.932939
  0.944760
  0.924580
  0.964047
  0.853827
  0.934882
  0.971806
  0.962763
  0.935188
  0.930699
  0.844898
  0.907009
  0.941705
  0.930631
  0.888432
  0.957024
  0.967787
  0.977863
  0.924889
  0.974537
  0.885653
  0.956539
  0.923580
  0.896911
  0.937972
  0.951227
  0.929470
  0.972487
  0.984779
  0.934585
  0.875363
  0.971975
  0.926293
  0.943891
  0.910875
  0.886250
  0.963344
  0.946274
  0.933766
  0.989103
  0.878436
  0.928844
  0.986132
  0.728061
  0.964327
  0.879610
  0.927911
  0.898552
  0.940840
  0.955813
  0.979766
  0.931274
  0.874787
  0.997882
  0.981096
  0.948747
  0.925818
  0.912752
  0.948893
  0.934258
  0.886614
  0.968489
  0.724653
  0.954531
  0.999267
  0.927890
  0.994007
  0.970766
  0.873418
  0.930389
  0.930803
  0.898057
  0.941029
  0.958908
  0.987139
  0.927961
  1.007786
  0.986469
  0.867946
  0.952335
  0.926684
  0.929514
  0.912582
  0.882826
  0.949428
  0.972426
  0.931745
  1.008794
  0.923805
  0.843278
  1.001190
  0.972934
  0.861085
  0.930746
  0.894708
  0.939675
  0.959144
  0.991436
  1.017985
  0.856620
  0.987410
  0.952567
  0.908932
  0.919727
  0.875054
  0.946663
  0.930609
  0.972439
  0.935406
  1.015015
  1.006131
  0.923879
  0.848933
  0.970918
  0.849316
  0.927851
  0.887365
  0.933412
  0.955683
  0.992594
  0.910546
  1.025586
  0.986759
  0.874198
  0.823911
  0.948328
  0.915371
  0.901689
  0.940141
  0.923424
  0.967797
  1.015072
  0.862768
  1.008474
  0.922525
  0.761127
  0.966464
  0.831265
  0.922121
  0.924573
  0.947461
  0.985714
  0.876836
  1.027531
  0.808754
  0.982178
  0.942223
  0.913826
  0.892674
  0.846941
  0.928901
  0.911672
  0.957019
  1.006010
  0.893469
  1.008778
  0.909063
  0.957424
  0.817773
  0.853259
  0.911872
  0.836650
  0.868815
  0.911697
  0.933137
  0.971656
  1.014483
  0.978688
  0.836875
  0.816277
  0.930497
  0.900776
  0.900152
  0.877439
  0.843777
  0.912897
  0.896356
  0.938273
  0.987060
  0.892987
  0.997349
  0.821424
  0.948240
  0.895651
  0.821972
  0.889165
  0.848826
  0.894041
  0.912604
  0.946391
  0.996245
  0.820277
  0.883853
  0.963686
  0.821760
  0.911211
  0.858212
  0.825163
  0.890833
  0.911662
  0.951925
  0.878661
  0.978163
  0.764011
  0.923518
  0.871692
  0.602808
  0.802131
  0.828694
  0.885549
  0.874194
  0.912019
  0.954462
  0.803832
  0.938768
  0.882316
  0.866980
  0.827647
  0.788680
  0.911852
  0.801569
  0.866428
  0.876185
  0.860411
  0.932857
  0.868235
  0.893982
  0.750896
  0.832241
  0.785591
  0.796377
  0.848578
  0.784150
  0.851968
  0.854020
  0.899081
  0.863403
  0.890431
  0.836676
  0.855504
  0.767146
  0.783313
  0.770577
  0.838252
  0.833825
  0.850703
  0.839133
  0.842161
  0.872306
  0.841180
  0.778888
  0.755975
  0.764655
  0.757416
  0.827685
  0.819460
  0.812165
  0.806454
  0.837155
  0.763296
  0.834430
  0.763391
  0.719364
  0.738161
  0.808858
  0.790313
  0.821200
  0.753319
  0.745284
  0.799175
  0.732581
  0.692364
  0.748657
  0.707943
  0.729814
  0.735501
  0.782894
  0.804191
  0.782507
  0.753888
  0.707567
  0.661256
  0.757812
  0.815807
  0.832261
  0.680034
  0.704103
  0.849464
  0.697478
  0.610000
  0.722625
  0.782724
  0.740607
  0.800543
  0.610298
  0.725216
  0.702960
  0.647584
  0.578407
  0.815621
  0.784874
  0.567431
  0.752623
  0.674517
  0.797510
  0.818195
  0.562614
  0.721064
  0.671176
  0.593436
  0.707169
  0.757328
  0.708504
  0.786135
  0.472168
  0.469983
  0.711952
  0.768944
  0.417141
  0.682849
  0.538001
  0.451016
  0.724161
  0.646603
  0.481801
  0.593737
  0.786324
  0.645200
  0.697134
  0.709774
  0.821747
  0.313715
  0.327675
  0.740158
  0.767361
  0.680408
  0.555807
  0.360317
  0.434184
  0.320451
  0.742420
  0.349889
  0.829788
  0.705103
  0.517513
  0.667687
  0.707418
  0.602889
  0.616802
  0.310007
  0.332482
  0.466328
  0.350537
  0.774087
  0.705592
  0.342840
  0.793053
  0.387362
  0.694124
  0.415283
  0.753418
  0.665321
  0.554325
  0.429303
  0.729326
  0.471974
  0.563932
  0.715951
  0.482180
  0.671630
  0.457033
  0.799570
  0.501438
  0.700344
  0.637009
  0.615184
  0.488804
  0.761566
  0.490908
  0.711068
  0.693642
  0.792095
  0.518894
  0.506199
  0.779834
  0.595306
  0.746447
  0.669547
  0.572017
  0.555949
  0.668788
  0.766988
  0.525029
  0.529812
  0.729723
  0.724197
  0.549566
  0.544374
  0.543841
  0.538939
  0.646563
  0.634140
  0.758045
  0.700156
  0.745231
  0.702524
  0.561947
  0.582765
  0.774230
  0.621725
  0.573980
  0.746787
  0.589062
  0.610753
  0.679833
  0.683717
  0.682147
  0.596681
  0.733572
  0.597255
  0.727331
  0.582443
  0.608945
  0.662314
  0.608568
  0.584964
  0.664919
  0.760992
  0.706037
  0.715144
  0.761532
  0.625542
  0.637201
  0.588710
  0.746631
  0.652801
  0.653066
  0.696763
  0.704306
  0.819146
  0.597167
  0.737989
  0.738403
  0.728061
  0.639103
  0.665891
  0.630110
  0.686835
  0.696648
  0.801913
  0.765337
  0.684037
  0.643242
  0.760320
  0.722618
  0.732933
  0.684763
  0.666287
  0.756336
  0.823532
  0.700915
  0.696263
  0.658127
  0.753873
  0.721803
  0.731123
  0.711047
  0.732101
  0.854411
  0.752521
  0.670061
  0.742566
  0.767625
  0.725710
  0.731940
  0.765066
  0.719405
  0.692727
  0.687854
  0.746218
  0.756316
  0.730270
  0.732842
  0.705510
  0.692141
  0.759732
  0.732403
  0.756992
  0.763227
  0.675943
  0.744773
  0.695851
  0.736412
  0.771780
  0.757763
  0.754446
  0.760769
  0.716956
  0.757561
  0.773926
  0.765143
  0.733406
  0.746167
  0.769770
  0.770304
  0.782062
  0.739865
  0.778596
  0.778281
  0.777471
  0.749957
  0.784588
  0.786879
  0.796541
  0.766574
  0.795236
  0.802277
  0.750104
  0.784848
  0.747379
  0.829416
  0.809354
  0.817266
  0.783826
  0.784981
  0.807552
  0.809204
  0.832950
  0.754830
  0.847145
  0.763819
  0.806145
  0.811210
  0.839285
  0.788879
  0.840207
  0.857591
  0.833987
  0.843919
  0.733973
  0.815705
  0.777243
  0.814896
  0.863882
  0.887892
  0.870637
  0.880956
  0.864720
  0.815313
  0.682771
  0.769891
  0.919700
  0.900813
  0.850223
  0.764180
  0.837388
  0.915291
  0.819836
  0.809436
  0.939906
  0.900363
  0.921458
  0.891964
  0.870212
  0.957811
  0.834047
  0.849956
  0.790314
  0.943717
  0.929161
  0.915189
  0.817689
  0.992273
  0.963147
  0.900390
  0.862981
  0.763511
  1.024647
  0.825722
  0.833867
  0.984245
  0.975308
  0.992984
  0.965341
  0.905265
  0.802189
  1.050618
  1.035407
  0.998599
  0.846735
  0.889447
  0.791881
  1.066367
  1.024250
  0.816300
  1.014549
  0.711266
  0.964913
  0.959545
  0.888306
  1.104178
  0.741588
  0.597505
  1.039929
  0.850991
  0.821631
  1.047562
  0.676781
  1.134838
  1.080443
  1.026239
  0.941359
  0.869272
  1.111347
  1.157799
  0.928110
  0.778562
  1.139544
  1.116187
  1.173990
  0.778450
  1.020421
  1.149805
  1.009404
  0.909349
  0.685007
  0.877976
  0.824886
  1.216321
  1.126552
  1.178628
  0.864689
  1.245083
  0.978607
  0.675384
  1.199940
  0.547853
  1.235798
  0.976212
  0.775182
  1.160079
  1.208640
  1.288211
  0.833562
  1.232182
  1.069876
  0.783271
  1.082295
  1.341544
  1.232187
  0.903770
  0.685809
  0.828660
  0.921177
  1.206468
  1.367357
  1.257196
  1.008147
  0.560030
  1.259494
  1.030635
  1.403778
  0.700603
  1.290895
  0.767054
  1.347562
  0.846620
  1.173478
  0.742181
  1.118863
  1.396715
  1.327037
  0.670522
  0.933947
  1.433046
  0.809985
  0.944612
  1.354632
  1.258685
  1.286367
  1.025308
  1.462527
  1.405546
  1.064993
  1.396452
  0.734121
  1.396584
  1.513465
  1.421108
  0.844008
  1.142691
  0.736054
  1.219410
  0.589518
  0.927959
  1.523075
  0.605088
  1.446527
  0.794253
  0.944661
  1.560504
  1.310739
  0.358475
  1.451225
  1.353680
  1.017230
  1.070456
  0.631632
  1.565318
  0.677823
  1.520899
  1.473068
  0.715257
  1.446327
  0.802511
  1.588205
  1.142916
  1.459689
  0.572462
  1.217646
  0.898836
  0.535594
  0.754509
  0.892194
  1.569354
  0.203658
  1.472634
  1.291428
  0.424870
  1.453572
  1.574699
  0.979501
  0.996196
  0.573051
  1.385169
  1.529547
  1.537996
  0.690138
  0.615349
  1.443135
  1.092824
  1.414315
  0.421284
  1.533936
  1.400665
  0.800285
  1.110891
  0.697665
  0.752985
  1.472630
  1.199176
  0.508644
  1.376708
  0.891171
  0.802089
  1.419772
  0.376693
  1.283186
  1.356339
  0.454682
  0.497686
  1.202552
  0.931054
  1.136385
  0.550713
  1.316012
  0.849529
  1.214006
  0.194373
  1.239109
  0.600680
  0.466461
  1.079207
  0.941373
  0.654551
  0.268128
  1.076341
  0.394408
  0.408588
  0.972547
  0.668304
  0.142837
  1.010698
  0.656075
  0.146908
  0.949469
  0.824974
  0.449374
  0.775356
  0.374920
  0.579267
  0.824404
  0.037087
  0.688478
  0.434978
  -0.036070
  0.691169
  0.422971
  0.413772
  0.463290
  -0.100578
  0.311279
  0.005327
  -0.228003
  -0.136836
  0.313064
  0.429602
  0.264826
  0.310532
  -0.402232
  0.263136
  0.307306
  -0.060910
  -0.350855
  0.166002
  0.024089
  -0.167986
  -0.107545
  0.194291
  0.065977
  -0.750988
  -0.204840
  -0.508851
  0.060514
  -0.107950
  -0.144735
  -0.353151
  -0.411289
  -1.132569
  -0.522587
  -0.100018
  -0.460042
  -1.098346
  -0.464174
  0.081336
  -0.568392
  -0.649509
  -0.508676
  -0.871463
  -0.868394
  -1.009508
  -0.434169
  -0.100724
  -1.645947
  -1.389249
  -1.127985
  -0.995612
  -1.072202
  0.000566
  -0.484473
  -1.216058
  -1.173097
  -1.548740
  -2.113508
  -0.801806
  -1.421984
  -0.153614
  -1.913018
  -1.482000
  -1.140148
  -1.568857
  -1.124137
  -1.957772
  -2.340784
  -0.439565
  -2.530535
  -1.617455
  -1.887636
  -2.008500
  -0.618769
  -1.840062
  -1.869338
  -2.907650
  -0.907881
  -0.370798
  -2.119996
  -1.969758
  -2.491832
  -1.014072
  -2.061166
  -2.627463
  -0.367626
  -2.382934
  -2.806768
  -1.539050
  0.034915
  -0.075320
  -1.632347
  -2.300659
  -0.728252
  -3.175812
  -0.740323
  -2.397980
  -2.412674
  -2.334660
  -2.645731
  -2.868157
  -2.753729
  -2.332010
  -3.343445
  -1.230404
  -2.489375
  0.073183
  -1.169633
  -2.695444
  -3.048798
  -0.538562
  -2.560045
  -1.850289
  -2.758652
  -0.278020
  -3.085717
  -0.697717
  -3.217823
  -1.953534
  -3.343252
  -0.994513
  -2.639033
  -2.760355
  -2.591871
  -2.711325
  -2.692921
  -0.036902
  -3.286226
  -1.518697
  -2.799148
  -1.198566
  -3.040558
  -0.690644
  -2.656381
  -2.913445
  -3.122262
  -2.815623
  -2.677556
  -2.157015
  -3.122227
  -0.730515
  -1.127351
  -1.824099
  -2.713983
  -0.267773
  -2.864178
  -2.534315
  -2.589412
  -2.690500
  -3.031837
  -2.714708
  -1.538230
  -2.601713
  -1.180431
  -2.630625
  -2.659622
  -0.738803
  -2.821398
  -1.975591
  -2.448691
  -2.631556
  -2.145856
  -2.568609
  -1.185305
  -0.663307
  -2.453780
  -1.572968
  -2.491904
  -2.467105
  -0.507072
  -2.296179
  -2.544303
  -1.643748
  -2.422340
  -2.351595
  -2.473731
  -0.031509
  -2.518410
  -0.783250
  -1.070508
  -2.191159
  -2.368426
  -2.353731
  -1.851861
  -2.216607
  -2.240099
  -1.099731
  -1.349236
  -2.404032
  -1.913796
  -0.124780
  -0.640098
  -2.226566
  -2.234395
  -2.308532
  -2.299757
  0.377296
  -2.285132
  -2.375048
  -2.165851
  -1.389070
  -2.101877
  -2.359972
  -2.272632
  -0.139342
  -2.182568
  -2.278246
  -2.211427
  -2.251904
  -2.258890
  -2.340153
  -1.002019
  -2.045877
  -2.189590
  0.218283
  -2.336231
  -2.102547
  -0.637662
  -2.266781
  -2.237415
  -2.246486
  -2.263115
  -2.160743
  -2.232501
  -2.198218
  -2.240699
  -2.147716
  -2.158375
  -2.195157
  -2.239057
  -0.578159
  -1.475024
  -2.141485
  -2.129101
  -1.034438
  -2.202418
  -2.148981
  -1.982737
  -2.199843
  -1.419974
  -2.145987
  -2.203794
  -1.814164
  -2.143867
  -2.017204
  -2.165401
  -1.944595
  -2.179260
  -2.101357
  -2.207715
  -2.080770
  -2.187612
  -2.102106
  -0.848463
  -2.182248
  -2.105714
  -2.184024
  -2.099079
  -0.601943
  -2.305627
  -2.068125
  -0.943230
  -0.361080
  -2.088074
  -2.336053
  -1.472456
  -1.439566
  -1.958712
  -2.057704
  -2.094287
  -2.412769
  -2.077289
  -2.347600
  -2.288292
  -2.058535
  -2.339448
  -0.142343
  0.089075
  -0.709790
  -2.221816
  -0.467553
  -2.714029
  -2.309810
  -2.768250
  -2.269418
  -2.254365
  -2.825331
  -2.822380
  -2.345222
  -0.261541
  -2.805244
  -0.775835
  0.281393
  -2.271537
  -1.174217
  -2.266656
  -1.417264
  -2.703583
  0.459968
  -2.830361
  -3.183806
  -2.794311
  -2.806799
  -3.313039
  -3.414352
  -3.410345
  -0.487077
  0.251840
  -0.352521
  -2.824713
  -3.093206
  -1.021399