# vtk DataFile Version 2.0
FSI_Simulation
ASCII

DATASET UNSTRUCTURED_GRID
POINTS 202 double
  0.600000  0.210000  0.000000
  0.600000  0.203330  0.000000
  0.600000  0.196670  0.000000
  0.600000  0.190000  0.000000
  0.592530  0.210000  0.000000
  0.593500  0.200000  0.000000
  0.592530  0.190000  0.000000
  0.588250  0.204000  0.000000
  0.587000  0.197330  0.000000
  0.585060  0.210000  0.000000
  0.585060  0.190000  0.000000
  0.581330  0.203500  0.000000
  0.581330  0.196500  0.000000
  0.577600  0.210000  0.000000
  0.577600  0.190000  0.000000
  0.573860  0.203500  0.000000
  0.573860  0.196500  0.000000
  0.570130  0.210000  0.000000
  0.570130  0.190000  0.000000
  0.566390  0.203500  0.000000
  0.566390  0.196500  0.000000
  0.562660  0.210000  0.000000
  0.562660  0.190000  0.000000
  0.558920  0.203500  0.000000
  0.558920  0.196500  0.000000
  0.555190  0.210000  0.000000
  0.555190  0.190000  0.000000
  0.551460  0.203500  0.000000
  0.551460  0.196500  0.000000
  0.547720  0.210000  0.000000
  0.547720  0.190000  0.000000
  0.543990  0.203500  0.000000
  0.543990  0.196500  0.000000
  0.540250  0.210000  0.000000
  0.540250  0.190000  0.000000
  0.536520  0.203500  0.000000
  0.536520  0.196500  0.000000
  0.532790  0.210000  0.000000
  0.532790  0.190000  0.000000
  0.529050  0.203500  0.000000
  0.529050  0.196500  0.000000
  0.525320  0.210000  0.000000
  0.525320  0.190000  0.000000
  0.521580  0.203500  0.000000
  0.521580  0.196500  0.000000
  0.517850  0.210000  0.000000
  0.517850  0.190000  0.000000
  0.514110  0.203500  0.000000
  0.514110  0.196500  0.000000
  0.510380  0.210000  0.000000
  0.510380  0.190000  0.000000
  0.506650  0.203500  0.000000
  0.506650  0.196500  0.000000
  0.502910  0.210000  0.000000
  0.502910  0.190000  0.000000
  0.499180  0.203500  0.000000
  0.499180  0.196500  0.000000
  0.495440  0.210000  0.000000
  0.495440  0.190000  0.000000
  0.491710  0.203500  0.000000
  0.491710  0.196500  0.000000
  0.487980  0.210000  0.000000
  0.487980  0.190000  0.000000
  0.484240  0.203500  0.000000
  0.484240  0.196500  0.000000
  0.480510  0.210000  0.000000
  0.480510  0.190000  0.000000
  0.476770  0.203500  0.000000
  0.476770  0.196500  0.000000
  0.473040  0.210000  0.000000
  0.473040  0.190000  0.000000
  0.469300  0.203500  0.000000
  0.469300  0.196500  0.000000
  0.465570  0.210000  0.000000
  0.465570  0.190000  0.000000
  0.461840  0.203500  0.000000
  0.461840  0.196500  0.000000
  0.458100  0.210000  0.000000
  0.458100  0.190000  0.000000
  0.454370  0.203500  0.000000
  0.454370  0.196500  0.000000
  0.450630  0.210000  0.000000
  0.450630  0.190000  0.000000
  0.446900  0.203500  0.000000
  0.446900  0.196500  0.000000
  0.443170  0.210000  0.000000
  0.443170  0.190000  0.000000
  0.439430  0.203500  0.000000
  0.439430  0.196500  0.000000
  0.435700  0.210000  0.000000
  0.435700  0.190000  0.000000
  0.431960  0.203500  0.000000
  0.431960  0.196500  0.000000
  0.428230  0.210000  0.000000
  0.428230  0.190000  0.000000
  0.424490  0.203500  0.000000
  0.424490  0.196500  0.000000
  0.420760  0.210000  0.000000
  0.420760  0.190000  0.000000
  0.417030  0.203500  0.000000
  0.417030  0.196500  0.000000
  0.413290  0.210000  0.000000
  0.413290  0.190000  0.000000
  0.409560  0.203500  0.000000
  0.409560  0.196500  0.000000
  0.405820  0.210000  0.000000
  0.405820  0.190000  0.000000
  0.402090  0.203500  0.000000
  0.402090  0.196490  0.000000
  0.398360  0.210000  0.000000
  0.398360  0.190000  0.000000
  0.394620  0.203500  0.000000
  0.394620  0.196490  0.000000
  0.390890  0.210000  0.000000
  0.390890  0.190000  0.000000
  0.387150  0.203500  0.000000
  0.387150  0.196490  0.000000
  0.383420  0.210000  0.000000
  0.383420  0.190000  0.000000
  0.379690  0.203500  0.000000
  0.379690  0.196490  0.000000
  0.375950  0.210000  0.000000
  0.375950  0.190000  0.000000
  0.372220  0.203500  0.000000
  0.372220  0.196490  0.000000
  0.368480  0.210000  0.000000
  0.368480  0.190000  0.000000
  0.364750  0.203500  0.000000
  0.364750  0.196490  0.000000
  0.361010  0.210000  0.000000
  0.361010  0.190000  0.000000
  0.357280  0.203500  0.000000
  0.357280  0.196490  0.000000
  0.353550  0.210000  0.000000
  0.353550  0.190000  0.000000
  0.349810  0.203500  0.000000
  0.349810  0.196490  0.000000
  0.346080  0.210000  0.000000
  0.346080  0.190000  0.000000
  0.342340  0.203500  0.000000
  0.342340  0.196490  0.000000
  0.338610  0.210000  0.000000
  0.338610  0.190000  0.000000
  0.334880  0.203500  0.000000
  0.334880  0.196490  0.000000
  0.331140  0.210000  0.000000
  0.331140  0.190000  0.000000
  0.327410  0.203500  0.000000
  0.327410  0.196490  0.000000
  0.323670  0.210000  0.000000
  0.323670  0.190000  0.000000
  0.319940  0.203500  0.000000
  0.319940  0.196490  0.000000
  0.316200  0.210000  0.000000
  0.316200  0.190000  0.000000
  0.312470  0.203500  0.000000
  0.312470  0.196490  0.000000
  0.308740  0.210000  0.000000
  0.308740  0.190000  0.000000
  0.305000  0.203500  0.000000
  0.305000  0.196490  0.000000
  0.301270  0.210000  0.000000
  0.301270  0.190000  0.000000
  0.297530  0.203500  0.000000
  0.297530  0.196490  0.000000
  0.293800  0.210000  0.000000
  0.293800  0.190000  0.000000
  0.290070  0.203500  0.000000
  0.290070  0.196490  0.000000
  0.286330  0.210000  0.000000
  0.286330  0.190000  0.000000
  0.282600  0.203500  0.000000
  0.282600  0.196490  0.000000
  0.278860  0.210000  0.000000
  0.278860  0.190000  0.000000
  0.275130  0.203500  0.000000
  0.275130  0.196490  0.000000
  0.271390  0.210000  0.000000
  0.271390  0.190000  0.000000
  0.267660  0.203500  0.000000
  0.267660  0.196490  0.000000
  0.263930  0.210000  0.000000
  0.263930  0.190000  0.000000
  0.260190  0.203500  0.000000
  0.260190  0.196490  0.000000
  0.256460  0.210000  0.000000
  0.256460  0.190000  0.000000
  0.253720  0.210000  0.000000
  0.252110  0.210000  0.000000
  0.253720  0.190000  0.000000
  0.252110  0.190000  0.000000
  0.250030  0.210000  0.000000
  0.249570  0.206150  0.000000
  0.249880  0.203390  0.000000
  0.249350  0.208030  0.000000
  0.250000  0.200000  0.000000
  0.248990  0.210000  0.000000
  0.249880  0.196610  0.000000
  0.249580  0.193880  0.000000
  0.250030  0.190000  0.000000
  0.249350  0.191970  0.000000
  0.248990  0.190000  0.000000

CELLS  291  1164
  3  3  2  6
  3  2  1  5
  3  1  0  4
  3  5  1  4
  3  2  5  6
  3  129  133  131
  3  122  118  120
  3  65  69  67
  3  186  182  184
  3  58  54  56
  3  33  37  35
  3  161  165  163
  3  90  86  88
  3  97  101  99
  3  154  150  152
  3  26  22  24
  3  17  21  19
  3  145  149  147
  3  106  102  104
  3  81  85  83
  3  170  166  168
  3  42  38  40
  3  49  53  51
  3  177  181  179
  3  74  70  72
  3  113  117  115
  3  138  134  136
  3  10  6  8
  3  9  13  11
  3  137  141  139
  3  114  110  112
  3  73  77  75
  3  178  174  176
  3  50  46  48
  3  41  45  43
  3  169  173  171
  3  82  78  80
  3  105  109  107
  3  146  142  144
  3  18  14  16
  3  25  29  27
  3  153  157  155
  3  98  94  96
  3  89  93  91
  3  162  158  160
  3  34  30  32
  3  57  61  59
  3  185  193  195
  3  66  62  64
  3  121  125  123
  3  130  126  128
  3  4  9  7
  3  133  137  135
  3  118  114  116
  3  69  73  71
  3  182  178  180
  3  54  50  52
  3  37  41  39
  3  165  169  167
  3  86  82  84
  3  101  105  103
  3  150  146  148
  3  22  18  20
  3  21  25  23
  3  149  153  151
  3  102  98  100
  3  85  89  87
  3  166  162  164
  3  38  34  36
  3  53  57  55
  3  181  185  183
  3  70  66  68
  3  117  121  119
  3  134  130  132
  3  13  17  15
  3  141  145  143
  3  110  106  108
  3  77  81  79
  3  174  170  172
  3  46  42  44
  3  45  49  47
  3  173  177  175
  3  78  74  76
  3  109  113  111
  3  142  138  140
  3  14  10  12
  3  29  33  31
  3  157  161  159
  3  94  90  92
  3  93  97  95
  3  158  154  156
  3  30  26  28
  3  61  65  63
  3  197  186  195
  3  62  58  60
  3  125  129  127
  3  126  122  124
  3  131  133  135
  3  131  135  132
  3  131  132  128
  3  128  132  130
  3  107  109  111
  3  107  111  108
  3  107  108  104
  3  104  108  106
  3  183  185  195
  3  40  38  36
  3  40  36  39
  3  40  39  43
  3  43  39  41
  3  71  73  75
  3  71  75  72
  3  71  72  68
  3  68  72  70
  3  31  33  35
  3  31  35  32
  3  31  32  28
  3  28  32  30
  3  99  101  103
  3  99  103  100
  3  99  100  96
  3  96  100  98
  3  172  170  168
  3  172  168  171
  3  172  171  175
  3  175  171  173
  3  139  141  143
  3  139  143  140
  3  139  140  136
  3  136  140  138
  3  20  18  16
  3  20  16  19
  3  20  19  23
  3  23  19  21
  3  127  129  131
  3  127  131  128
  3  127  128  124
  3  124  128  126
  3  56  54  52
  3  56  52  55
  3  56  55  59
  3  59  55  57
  3  155  157  159
  3  155  159  156
  3  155  156  152
  3  152  156  154
  3  15  17  19
  3  15  19  16
  3  15  16  12
  3  12  16  14
  3  115  117  119
  3  115  119  116
  3  115  116  112
  3  112  116  114
  3  167  169  171
  3  167  171  168
  3  167  168  164
  3  164  168  166
  3  147  149  151
  3  147  151  148
  3  147  148  144
  3  144  148  146
  3  76  74  72
  3  76  72  75
  3  76  75  79
  3  79  75  77
  3  48  46  44
  3  48  44  47
  3  48  47  51
  3  51  47  49
  3  87  89  91
  3  87  91  88
  3  87  88  84
  3  84  88  86
  3  67  69  71
  3  67  71  68
  3  67  68  64
  3  64  68  66
  3  119  121  123
  3  119  123  120
  3  119  120  116
  3  116  120  118
  3  179  181  183
  3  179  183  180
  3  179  180  176
  3  176  180  178
  3  52  50  48
  3  52  48  51
  3  52  51  55
  3  55  51  53
  3  92  90  88
  3  92  88  91
  3  92  91  95
  3  95  91  93
  3  24  22  20
  3  24  20  23
  3  24  23  27
  3  27  23  25
  3  64  62  60
  3  64  60  63
  3  64  63  67
  3  67  63  65
  3  151  153  155
  3  151  155  152
  3  151  152  148
  3  148  152  150
  3  163  165  167
  3  163  167  164
  3  163  164  160
  3  160  164  162
  3  8  6  5
  3  8  5  7
  3  7  5  4
  3  8  7  11
  3  11  7  9
  3  103  105  107
  3  103  107  104
  3  103  104  100
  3  100  104  102
  3  83  85  87
  3  83  87  84
  3  83  84  80
  3  80  84  82
  3  135  137  139
  3  135  139  136
  3  135  136  132
  3  132  136  134
  3  36  34  32
  3  36  32  35
  3  36  35  39
  3  39  35  37
  3  144  142  140
  3  144  140  143
  3  144  143  147
  3  147  143  145
  3  159  161  163
  3  159  163  160
  3  159  160  156
  3  156  160  158
  3  59  61  63
  3  59  63  60
  3  59  60  56
  3  56  60  58
  3  44  42  40
  3  44  40  43
  3  44  43  47
  3  47  43  45
  3  112  110  108
  3  112  108  111
  3  112  111  115
  3  115  111  113
  3  124  122  120
  3  124  120  123
  3  124  123  127
  3  127  123  125
  3  96  94  92
  3  96  92  95
  3  96  95  99
  3  99  95  97
  3  28  26  24
  3  28  24  27
  3  28  27  31
  3  31  27  29
  3  184  182  180
  3  184  180  183
  3  184  183  195
  3  175  177  179
  3  175  179  176
  3  175  176  172
  3  172  176  174
  3  79  81  83
  3  79  83  80
  3  79  80  76
  3  76  80  78
  3  11  13  15
  3  11  15  12
  3  11  12  8
  3  8  12  10
  3  186  184  195
  3  189  186  197
  3  185  187  193
  3  200  201  199
  3  196  194  191
  3  191  194  188
  3  200  199  190
  3  188  194  192
  3  200  190  198
  3  198  190  197
  3  188  192  193
  3  197  190  189
  3  188  193  187

CELL_TYPES 291
5
5
5
5
5
5
5
5
5
5
5
5
5
5
5
5
5
5
5
5
5
5
5
5
5
5
5
5
5
5
5
5
5
5
5
5
5
5
5
5
5
5
5
5
5
5
5
5
5
5
5
5
5
5
5
5
5
5
5
5
5
5
5
5
5
5
5
5
5
5
5
5
5
5
5
5
5
5
5
5
5
5
5
5
5
5
5
5
5
5
5
5
5
5
5
5
5
5
5
5
5
5
5
5
5
5
5
5
5
5
5
5
5
5
5
5
5
5
5
5
5
5
5
5
5
5
5
5
5
5
5
5
5
5
5
5
5
5
5
5
5
5
5
5
5
5
5
5
5
5
5
5
5
5
5
5
5
5
5
5
5
5
5
5
5
5
5
5
5
5
5
5
5
5
5
5
5
5
5
5
5
5
5
5
5
5
5
5
5
5
5
5
5
5
5
5
5
5
5
5
5
5
5
5
5
5
5
5
5
5
5
5
5
5
5
5
5
5
5
5
5
5
5
5
5
5
5
5
5
5
5
5
5
5
5
5
5
5
5
5
5
5
5
5
5
5
5
5
5
5
5
5
5
5
5
5
5
5
5
5
5
5
5
5
5
5
5
5
5
5
5
5
5
5
5
5
5
5
5
5
5
5
5
5
5
5
5
5
5
5
5

POINT_DATA 202
SCALARS pressure double
LOOKUP_TABLE default
  0.000000
  0.000000
  0.000000
  0.000000
  0.000000
  0.000000
  0.000000
  0.000000
  0.000000
  0.000000
  0.000000
  0.000000
  0.000000
  0.000000
  0.000000
  0.000000
  0.000000
  0.000000
  0.000000
  0.000000
  0.000000
  0.000000
  0.000000
  0.000000
  0.000000
  0.000000
  0.000000
  0.000000
  0.000000
  0.000000
  0.000000
  0.000000
  0.000000
  0.000000
  0.000000
  0.000000
  0.000000
  0.000000
  0.000000
  0.000000
  0.000000
  0.000000
  0.000000
  0.000000
  0.000000
  0.000000
  0.000000
  0.000000
  0.000000
  0.000000
  0.000000
  0.000000
  0.000000
  0.000000
  0.000000
  0.000000
  0.000000
  0.000000
  0.000000
  0.000000
  0.000000
  0.000000
  0.000000
  0.000000
  0.000000
  0.000000
  0.000000
  0.000000
  0.000000
  0.000000
  0.000000
  0.000000
  0.000000
  0.000000
  0.000000
  0.000000
  0.000000
  0.000000
  0.000000
  0.000000
  0.000000
  0.000000
  0.000000
  0.000000
  0.000000
  0.000000
  0.000000
  0.000000
  0.000000
  0.000000
  0.000000
  0.000000
  0.000000
  0.000000
  0.000000
  0.000000
  0.000000
  0.000000
  0.000000
  0.000000
  0.000000
  0.000000
  0.000000
  0.000000
  0.000000
  0.000000
  0.000000
  0.000000
  0.000000
  0.000000
  0.000000
  0.000000
  0.000000
  0.000000
  0.000000
  0.000000
  0.000000
  0.000000
  0.000000
  0.000000
  0.000000
  0.000000
  0.000000
  0.000000
  0.000000
  0.000000
  0.000000
  0.000000
  0.000000
  0.000000
  0.000000
  0.000000
  0.000000
  0.000000
  0.000000
  0.000000
  0.000000
  0.000000
  0.000000
  0.000000
  0.000000
  0.000000
  0.000000
  0.000000
  0.000000
  0.000000
  0.000000
  0.000000
  0.000000
  0.000000
  0.000000
  0.000000
  0.000000
  0.000000
  0.000000
  0.000000
  0.000000
  0.000000
  0.000000
  0.000000
  0.000000
  0.000000
  0.000000
  0.000000
  0.000000
  0.000000
  0.000000
  0.000000
  0.000000
  0.000000
  0.000000
  0.000000
  0.000000
  0.000000
  0.000000
  0.000000
  0.000000
  0.000000
  0.000000
  0.000000
  0.000000
  0.000000
  0.000000
  0.000000
  0.000000
  0.000000
  0.000000
  0.000000
  0.000000
  0.000000
  0.000000
  0.000000
  0.000000
  0.000000
  0.000000
  0.000000
  0.000000
  0.000000
  0.000000
  0.000000
  0.000000
  0.000000
VECTORS velocity double
  0.074144  -0.100037  0.000000
  -0.146208  0.010433  0.000000
  -0.149355  -0.007655  0.000000
  0.068262  0.100780  0.000000
  0.098654  -0.219652  0.000000
  0.000000  0.000000  0.000000
  0.097103  0.231318  0.000000
  0.000000  0.000000  0.000000
  0.000000  0.000000  0.000000
  0.088506  -0.250592  0.000000
  0.081182  0.253118  0.000000
  0.000000  0.000000  0.000000
  0.000000  0.000000  0.000000
  0.082527  -0.272439  0.000000
  0.079216  0.261593  0.000000
  0.000000  0.000000  0.000000
  0.000000  0.000000  0.000000
  0.081267  -0.300497  0.000000
  0.076874  0.286751  0.000000
  0.000000  0.000000  0.000000
  0.000000  0.000000  0.000000
  0.076034  -0.296363  0.000000
  0.073885  0.292185  0.000000
  0.000000  0.000000  0.000000
  0.000000  0.000000  0.000000
  0.072123  -0.302550  0.000000
  0.076124  0.315185  0.000000
  0.000000  0.000000  0.000000
  0.000000  0.000000  0.000000
  0.079047  -0.326831  0.000000
  0.072658  0.327187  0.000000
  0.000000  0.000000  0.000000
  0.000000  0.000000  0.000000
  0.072733  -0.339008  0.000000
  0.068889  0.338245  0.000000
  0.000000  0.000000  0.000000
  0.000000  0.000000  0.000000
  0.071083  -0.355542  0.000000
  0.067466  0.348134  0.000000
  0.000000  0.000000  0.000000
  0.000000  0.000000  0.000000
  0.069845  -0.357236  0.000000
  0.067719  0.357604  0.000000
  0.000000  0.000000  0.000000
  0.000000  0.000000  0.000000
  0.073607  -0.379883  0.000000
  0.067818  0.363706  0.000000
  0.000000  0.000000  0.000000
  0.000000  0.000000  0.000000
  0.070693  -0.380914  0.000000
  0.073047  0.386455  0.000000
  0.000000  0.000000  0.000000
  0.000000  0.000000  0.000000
  0.081715  -0.410346  0.000000
  0.069932  0.394974  0.000000
  0.000000  0.000000  0.000000
  0.000000  0.000000  0.000000
  0.082090  -0.441117  0.000000
  0.076097  0.421326  0.000000
  0.000000  0.000000  0.000000
  0.000000  0.000000  0.000000
  0.075619  -0.455974  0.000000
  0.073269  0.433890  0.000000
  0.000000  0.000000  0.000000
  0.000000  0.000000  0.000000
  0.075852  -0.474087  0.000000
  0.077906  0.462720  0.000000
  0.000000  0.000000  0.000000
  0.000000  0.000000  0.000000
  0.076435  -0.485941  0.000000
  0.075325  0.476505  0.000000
  0.000000  0.000000  0.000000
  0.000000  0.000000  0.000000
  0.079274  -0.503882  0.000000
  0.079131  0.506001  0.000000
  0.000000  0.000000  0.000000
  0.000000  0.000000  0.000000
  0.088239  -0.539254  0.000000
  0.077453  0.518434  0.000000
  0.000000  0.000000  0.000000
  0.000000  0.000000  0.000000
  0.084471  -0.568519  0.000000
  0.086409  0.548638  0.000000
  0.000000  0.000000  0.000000
  0.000000  0.000000  0.000000
  0.082741  -0.590430  0.000000
  0.092752  0.594711  0.000000
  0.000000  0.000000  0.000000
  0.000000  0.000000  0.000000
  0.088035  -0.595906  0.000000
  0.082370  0.618551  0.000000
  0.000000  0.000000  0.000000
  0.000000  0.000000  0.000000
  0.098389  -0.632799  0.000000
  0.095238  0.617921  0.000000
  0.000000  0.000000  0.000000
  0.000000  0.000000  0.000000
  0.095789  -0.680125  0.000000
  0.101514  0.672452  0.000000
  0.000000  0.000000  0.000000
  0.000000  0.000000  0.000000
  0.086108  -0.702026  0.000000
  0.086772  0.703502  0.000000
  0.000000  0.000000  0.000000
  0.000000  0.000000  0.000000
  0.078409  -0.731736  0.000000
  0.077178  0.723903  0.000000
  0.000000  0.000000  0.000000
  0.000000  0.000000  0.000000
  0.075899  -0.738169  0.000000
  0.063708  0.738180  0.000000
  0.000000  0.000000  0.000000
  0.000000  0.000000  0.000000
  0.065264  -0.754943  0.000000
  0.058876  0.735218  0.000000
  0.000000  0.000000  0.000000
  0.000000  0.000000  0.000000
  0.051640  -0.750452  0.000000
  0.035336  0.715980  0.000000
  0.000000  0.000000  0.000000
  0.000000  0.000000  0.000000
  0.020879  -0.715309  0.000000
  0.011516  0.672200  0.000000
  0.000000  0.000000  0.000000
  0.000000  0.000000  0.000000
  -0.004582  -0.647693  0.000000
  -0.007725  0.608486  0.000000
  0.000000  0.000000  0.000000
  0.000000  0.000000  0.000000
  -0.026395  -0.559233  0.000000
  -0.042338  0.503237  0.000000
  0.000000  0.000000  0.000000
  0.000000  0.000000  0.000000
  -0.059205  -0.429418  0.000000
  -0.069020  0.366496  0.000000
  0.000000  0.000000  0.000000
  0.000000  0.000000  0.000000
  -0.082446  -0.276610  0.000000
  -0.098584  0.196598  0.000000
  0.000000  0.000000  0.000000
  0.000000  0.000000  0.000000
  -0.117432  -0.087800  0.000000
  -0.136022  -0.016025  0.000000
  0.000000  0.000000  0.000000
  0.000000  0.000000  0.000000
  -0.161704  0.144452  0.000000
  -0.160087  -0.262709  0.000000
  0.000000  0.000000  0.000000
  0.000000  0.000000  0.000000
  -0.216953  0.390538  0.000000
  -0.170883  -0.477882  0.000000
  0.000000  0.000000  0.000000
  0.000000  0.000000  0.000000
  -0.226092  0.709701  0.000000
  -0.188476  -0.726022  0.000000
  0.000000  0.000000  0.000000
  0.000000  0.000000  0.000000
  -0.196534  0.877982  0.000000
  -0.166277  -0.949029  0.000000
  0.000000  0.000000  0.000000
  0.000000  0.000000  0.000000
  -0.171122  1.095099  0.000000
  -0.165231  -1.078187  0.000000
  0.000000  0.000000  0.000000
  0.000000  0.000000  0.000000
  -0.157271  1.175081  0.000000
  -0.127566  -1.205611  0.000000
  0.000000  0.000000  0.000000
  0.000000  0.000000  0.000000
  -0.103244  1.270736  0.000000
  -0.096213  -1.253231  0.000000
  0.000000  0.000000  0.000000
  0.000000  0.000000  0.000000
  -0.084730  1.254331  0.000000
  -0.052714  -1.254028  0.000000
  0.000000  0.000000  0.000000
  0.000000  0.000000  0.000000
  -0.025287  1.235246  0.000000
  -0.045519  -1.204623  0.000000
  0.000000  0.000000  0.000000
  0.000000  0.000000  0.000000
  -0.019594  1.164448  0.000000
  -0.034407  -1.167623  0.000000
  0.000000  0.000000  0.000000
  0.000000  0.000000  0.000000
  -0.005827  0.777367  0.000000
  0.006688  -0.778963  0.000000
  0.006876  0.323685  0.000000
  0.002673  0.275212  0.000000
  0.008078  -0.324231  0.000000
  0.002685  -0.277225  0.000000
  0.006665  0.227126  0.000000
  0.000000  0.000000  0.000000
  0.000000  0.000000  0.000000
  0.000000  0.000000  0.000000
  0.000000  0.000000  0.000000
  0.535956  0.228966  0.000000
  0.000000  0.000000  0.000000
  0.000000  0.000000  0.000000
  0.008021  -0.228035  0.000000
  0.000000  0.000000  0.000000
  0.536235  -0.229292  0.000000
