# vtk DataFile Version 2.0
FSI_Simulation
ASCII

DATASET UNSTRUCTURED_GRID
POINTS 2042 double
  2.500000  0.410000  0.000000
  2.450000  0.410000  0.000000
  2.500000  0.358750  0.000000
  2.455000  0.345150  0.000000
  2.400000  0.410000  0.000000
  2.500000  0.307500  0.000000
  2.409170  0.352960  0.000000
  2.425000  0.303110  0.000000
  2.350000  0.410000  0.000000
  2.359860  0.354270  0.000000
  2.500000  0.256250  0.000000
  2.450000  0.259810  0.000000
  2.375000  0.303110  0.000000
  2.400000  0.259810  0.000000
  2.300000  0.410000  0.000000
  2.500000  0.205000  0.000000
  2.325000  0.303110  0.000000
  2.425000  0.216510  0.000000
  2.300000  0.346410  0.000000
  2.350000  0.259810  0.000000
  2.375000  0.216510  0.000000
  2.450000  0.173210  0.000000
  2.275000  0.303110  0.000000
  2.250000  0.410000  0.000000
  2.300000  0.259810  0.000000
  2.500000  0.153750  0.000000
  2.400000  0.173210  0.000000
  2.250000  0.346410  0.000000
  2.325000  0.216510  0.000000
  2.350000  0.173210  0.000000
  2.429170  0.133880  0.000000
  2.250000  0.259810  0.000000
  2.225000  0.303110  0.000000
  2.275000  0.216510  0.000000
  2.200000  0.410000  0.000000
  2.197270  0.363510  0.000000
  2.375000  0.129900  0.000000
  2.500000  0.102500  0.000000
  2.300000  0.173210  0.000000
  2.450000  0.086600  0.000000
  2.325000  0.129900  0.000000
  2.200000  0.259810  0.000000
  2.225000  0.216510  0.000000
  2.400000  0.086600  0.000000
  2.250000  0.173210  0.000000
  2.170490  0.306770  0.000000
  2.150000  0.410000  0.000000
  2.350000  0.086600  0.000000
  2.500000  0.051250  0.000000
  2.275000  0.129900  0.000000
  2.135420  0.358250  0.000000
  2.429170  0.044630  0.000000
  2.175000  0.216510  0.000000
  2.300000  0.086600  0.000000
  2.150000  0.259810  0.000000
  2.200000  0.173210  0.000000
  2.375000  0.043300  0.000000
  2.225000  0.129900  0.000000
  2.112500  0.313250  0.000000
  2.100000  0.410000  0.000000
  2.325000  0.043300  0.000000
  2.250000  0.086600  0.000000
  2.500000  0.000000  0.000000
  2.450000  0.000000  0.000000
  2.125000  0.216510  0.000000
  2.400000  0.000000  0.000000
  2.150000  0.173210  0.000000
  2.075000  0.366700  0.000000
  2.175000  0.129900  0.000000
  2.275000  0.043300  0.000000
  2.087500  0.269950  0.000000
  2.350000  0.000000  0.000000
  2.200000  0.086600  0.000000
  2.050000  0.410000  0.000000
  2.300000  0.000000  0.000000
  2.050000  0.323400  0.000000
  2.225000  0.043300  0.000000
  2.100000  0.173210  0.000000
  2.125000  0.129900  0.000000
  2.062500  0.226650  0.000000
  2.150000  0.086600  0.000000
  2.025000  0.366700  0.000000
  2.250000  0.000000  0.000000
  2.175000  0.043300  0.000000
  2.025000  0.280100  0.000000
  2.000000  0.410000  0.000000
  2.000000  0.323400  0.000000
  2.200000  0.000000  0.000000
  2.070830  0.133290  0.000000
  2.100000  0.086600  0.000000
  2.037500  0.183350  0.000000
  2.125000  0.043300  0.000000
  1.975000  0.366700  0.000000
  2.000000  0.236790  0.000000
  2.150000  0.000000  0.000000
  1.975000  0.280100  0.000000
  1.950000  0.410000  0.000000
  2.050000  0.086600  0.000000
  1.950000  0.323400  0.000000
  2.012500  0.140050  0.000000
  2.075000  0.043300  0.000000
  1.975000  0.193490  0.000000
  2.100000  0.000000  0.000000
  1.925000  0.366700  0.000000
  1.950000  0.236790  0.000000
  1.925000  0.280100  0.000000
  2.000000  0.086600  0.000000
  1.900000  0.410000  0.000000
  2.025000  0.043300  0.000000
  1.900000  0.323400  0.000000
  1.950000  0.150190  0.000000
  2.050000  0.000000  0.000000
  1.925000  0.193490  0.000000
  1.900000  0.236790  0.000000
  1.875000  0.366700  0.000000
  1.875000  0.280100  0.000000
  1.975000  0.043300  0.000000
  1.937500  0.096750  0.000000
  2.000000  0.000000  0.000000
  1.850000  0.410000  0.000000
  1.902380  0.145780  0.000000
  1.850000  0.323400  0.000000
  1.875000  0.193490  0.000000
  1.850000  0.236790  0.000000
  1.820830  0.365370  0.000000
  1.925000  0.043300  0.000000
  1.950000  0.000000  0.000000
  1.800000  0.410000  0.000000
  1.850000  0.150190  0.000000
  1.877180  0.088810  0.000000
  1.810710  0.280600  0.000000
  1.800000  0.323400  0.000000
  1.820830  0.195410  0.000000
  1.800000  0.236790  0.000000
  1.900000  0.000000  0.000000
  1.875360  0.035430  0.000000
  1.825000  0.106890  0.000000
  1.800000  0.150190  0.000000
  1.750000  0.410000  0.000000
  1.750000  0.358750  0.000000
  1.750000  0.307500  0.000000
  1.750000  0.256250  0.000000
  1.825000  0.043300  0.000000
  1.850000  0.000000  0.000000
  1.750000  0.205000  0.000000
  1.793300  0.076870  0.000000
  1.750000  0.153750  0.000000
  1.700640  0.410000  0.000000
  1.704300  0.327190  0.000000
  1.750000  0.102500  0.000000
  1.800000  0.000000  0.000000
  1.706240  0.242410  0.000000
  1.676060  0.366700  0.000000
  1.679550  0.284150  0.000000
  1.704500  0.168810  0.000000
  1.750000  0.051250  0.000000
  1.682040  0.198780  0.000000
  1.655740  0.327710  0.000000
  1.651490  0.410000  0.000000
  1.750000  0.000000  0.000000
  1.656690  0.241750  0.000000
  1.703750  0.082910  0.000000
  1.678980  0.125940  0.000000
  1.627030  0.366700  0.000000
  1.631170  0.284620  0.000000
  1.654610  0.169080  0.000000
  1.632070  0.198270  0.000000
  1.607330  0.328120  0.000000
  1.602560  0.410000  0.000000
  1.700280  0.000000  0.000000
  1.675600  0.043300  0.000000
  1.655160  0.082380  0.000000
  1.606810  0.241470  0.000000
  1.630810  0.125620  0.000000
  1.578220  0.366700  0.000000
  1.582990  0.284920  0.000000
  1.604730  0.168150  0.000000
  1.578920  0.210800  0.000000
  1.650920  0.000000  0.000000
  1.559000  0.328320  0.000000
  1.553870  0.410000  0.000000
  1.626430  0.043300  0.000000
  1.606660  0.082260  0.000000
  1.556930  0.242380  0.000000
  1.582820  0.125810  0.000000
  1.529630  0.366700  0.000000
  1.534940  0.284960  0.000000
  1.555320  0.166880  0.000000
  1.601940  0.000000  0.000000
  1.530950  0.199810  0.000000
  1.577650  0.043300  0.000000
  1.510670  0.328200  0.000000
  1.505400  0.410000  0.000000
  1.558080  0.082770  0.000000
  1.534730  0.126670  0.000000
  1.507460  0.243800  0.000000
  1.481280  0.366700  0.000000
  1.486910  0.284640  0.000000
  1.506480  0.166500  0.000000
  1.553350  0.000000  0.000000
  1.529250  0.043300  0.000000
  1.482130  0.200990  0.000000
  1.462240  0.327690  0.000000
  1.457160  0.410000  0.000000
  1.509220  0.083990  0.000000
  1.486020  0.128110  0.000000
  1.458500  0.244760  0.000000
  1.433170  0.366700  0.000000
  1.438620  0.283990  0.000000
  1.458930  0.158770  0.000000
  1.505150  0.000000  0.000000
  1.481250  0.043300  0.000000
  1.434180  0.201480  0.000000
  1.459870  0.085670  0.000000
  1.413590  0.326890  0.000000
  1.409170  0.410000  0.000000
  1.409940  0.244800  0.000000
  1.385300  0.366700  0.000000
  1.389560  0.283370  0.000000
  1.409090  0.158420  0.000000
  1.457350  0.000000  0.000000
  1.433650  0.043300  0.000000
  1.386550  0.201040  0.000000
  1.410050  0.086600  0.000000
  1.364750  0.326450  0.000000
  1.361420  0.410000  0.000000
  1.361460  0.243860  0.000000
  1.337670  0.366700  0.000000
  1.409950  0.000000  0.000000
  1.338650  0.284240  0.000000
  1.386460  0.043300  0.000000
  1.354150  0.119670  0.000000
  1.313920  0.410000  0.000000
  1.316290  0.328550  0.000000
  1.332940  0.164270  0.000000
  1.312360  0.242750  0.000000
  1.362970  0.000000  0.000000
  1.290300  0.366700  0.000000
  1.295390  0.283330  0.000000
  1.339680  0.043300  0.000000
  1.325730  0.078680  0.000000
  1.304410  0.123360  0.000000
  1.266670  0.410000  0.000000
  1.266740  0.323400  0.000000
  1.272670  0.239000  0.000000
  1.283210  0.168120  0.000000
  1.316400  0.000000  0.000000
  1.243180  0.366700  0.000000
  1.246180  0.281190  0.000000
  1.293330  0.043300  0.000000
  1.277840  0.081590  0.000000
  1.256410  0.126460  0.000000
  1.219690  0.410000  0.000000
  1.219750  0.323400  0.000000
  1.233390  0.170720  0.000000
  1.222230  0.237350  0.000000
  1.270260  0.000000  0.000000
  1.196320  0.366700  0.000000
  1.247400  0.043300  0.000000
  1.196390  0.280100  0.000000
  1.229040  0.084940  0.000000
  1.205650  0.129050  0.000000
  1.189490  0.207370  0.000000
  1.172960  0.410000  0.000000
  1.173020  0.323400  0.000000
  1.224540  0.000000  0.000000
  1.181510  0.158020  0.000000
  1.201900  0.043300  0.000000
  1.149720  0.366700  0.000000
  1.179360  0.086600  0.000000
  1.143430  0.291070  0.000000
  1.144660  0.247780  0.000000
  1.126490  0.410000  0.000000
  1.142770  0.189580  0.000000
  1.179250  0.000000  0.000000
  1.134770  0.140320  0.000000
  1.156830  0.043300  0.000000
  1.103400  0.366700  0.000000
  1.100860  0.316520  0.000000
  1.099450  0.268150  0.000000
  1.103580  0.220000  0.000000
  1.080300  0.410000  0.000000
  1.096330  0.172140  0.000000
  1.134410  0.000000  0.000000
  1.100760  0.105310  0.000000
  1.058360  0.324420  0.000000
  1.099400  0.056460  0.000000
  1.059350  0.282410  0.000000
  1.062400  0.233330  0.000000
  1.051490  0.361960  0.000000
  1.062400  0.206670  0.000000
  1.062400  0.140000  0.000000
  1.034380  0.410000  0.000000
  1.090000  0.000000  0.000000
  1.032380  0.305960  0.000000
  1.027830  0.333570  0.000000
  1.033760  0.246670  0.000000
  1.028220  0.281830  0.000000
  1.059860  0.078570  0.000000
  1.030770  0.220170  0.000000
  1.033760  0.193330  0.000000
  1.015410  0.368300  0.000000
  1.056850  0.040910  0.000000
  1.013850  0.293330  0.000000
  1.011380  0.313820  0.000000
  1.013850  0.280000  0.000000
  1.013850  0.266670  0.000000
  1.013850  0.240000  0.000000
  1.012290  0.252000  0.000000
  1.025480  0.152840  0.000000
  1.013850  0.226670  0.000000
  1.028350  0.124560  0.000000
  1.002130  0.333160  0.000000
  1.012290  0.214670  0.000000
  1.013850  0.200000  0.000000
  1.032380  0.094040  0.000000
  1.000000  0.300000  0.000000
  1.012290  0.188000  0.000000
  1.013850  0.173330  0.000000
[...]
POINT_DATA 2042
SCALARS pressure double
LOOKUP_TABLE default
  0.123012
  -0.056929
  -0.039367
  -0.008979
  0.094143
  0.121325
  0.132229
  -0.022272
  -0.065468
  0.077539
  -0.002932
  -0.002359
  0.019528
  0.031353
  -0.326282
  -0.032279
  -0.002691
  0.043759
  0.056871
  0.060512
  0.045727
  0.038777
  0.137211
  0.235374
  0.098383
  -0.059035
  0.006143
  0.161609
  0.085145
  0.069080
  0.045367
  0.107069
  0.001555
  0.064071
  0.252499
  0.291105
  0.052521
  0.043479
  0.074099
  0.009401
  0.064164
  0.139328
  0.156356
  0.032720
  0.115380
  0.255660
  0.047144
  0.038625
  0.077066
  0.108568
  0.114010
  -0.018125
  0.099763
  0.077440
  0.211870
  0.121183
  0.083008
  0.101082
  0.150508
  0.414425
  0.097774
  0.091413
  0.203544
  -0.036182
  0.188303
  0.026248
  0.139731
  0.276502
  0.153496
  0.115322
  0.124824
  0.027924
  0.128804
  0.267833
  0.048704
  0.267327
  0.157189
  0.167194
  0.132226
  0.142032
  0.139879
  0.123571
  0.091543
  0.142310
  0.233943
  0.288984
  0.213954
  0.099803
  0.171244
  0.158172
  0.139223
  0.175495
  0.136330
  0.189299
  0.154829
  0.138801
  0.268934
  0.158166
  0.206702
  0.121578
  0.120024
  0.163428
  0.169835
  0.095608
  0.135196
  0.154830
  0.137552
  0.269533
  0.168486
  0.186959
  0.173669
  0.199345
  0.106832
  0.140148
  0.043117
  0.072356
  0.039451
  0.174912
  0.153000
  0.239541
  0.022139
  0.092353
  0.119745
  0.075349
  0.033059
  0.133986
  0.221827
  0.058490
  0.134932
  0.116640
  0.053956
  0.075507
  0.057918
  0.064218
  0.266114
  0.055262
  0.047589
  -0.009244
  0.009252
  -0.091433
  0.026360
  -0.069658
  0.018122
  0.057827
  0.013175
  0.063039
  0.032899
  0.060126
  -0.021235
  0.048705
  0.082674
  0.022584
  -0.098251
  -0.058142
  -0.013514
  0.005082
  -0.028139
  -0.021105
  0.004868
  0.229902
  -0.130726
  0.029318
  -0.115212
  -0.142510
  -0.064943
  -0.054188
  -0.084542
  -0.100718
  -0.066761
  -0.004603
  -0.198581
  0.037023
  -0.113809
  -0.115225
  -0.165718
  -0.112159
  -0.076015
  -0.113461
  0.080725
  -0.129141
  -0.105776
  -0.147310
  -0.049125
  -0.123375
  -0.137621
  -0.172177
  -0.139077
  -0.116637
  -0.036806
  -0.159261
  -0.187901
  -0.158495
  -0.140800
  -0.067498
  -0.185032
  -0.157900
  -0.212206
  -0.166144
  -0.107107
  -0.042565
  -0.210335
  -0.171426
  -0.184386
  -0.166070
  -0.098107
  -0.186462
  -0.178507
  -0.220632
  -0.185688
  -0.212944
  -0.109251
  -0.204587
  -0.153616
  -0.151896
  -0.214015
  -0.187557
  -0.242993
  -0.273924
  -0.223099
  -0.198033
  -0.107599
  -0.251303
  -0.173001
  -0.152723
  -0.230742
  -0.217981
  -0.210282
  -0.271614
  -0.097742
  -0.242849
  -0.174391
  -0.254755
  -0.248664
  -0.292673
  -0.274728
  -0.249338
  -0.243017
  -0.324380
  -0.280889
  -0.282820
  -0.254723
  -0.149856
  -0.313278
  -0.213983
  -0.252181
  -0.205119
  -0.174994
  -0.327656
  -0.243068
  -0.223658
  -0.167790
  -0.252950
  -0.122193
  -0.359457
  -0.273160
  -0.181858
  -0.252510
  -0.307383
  -0.311310
  -0.389448
  -0.284187
  -0.282078
  -0.040673
  -0.501508
  -0.228262
  -0.145089
  -0.282022
  -0.218993
  -0.379831
  -0.168565
  -0.406546
  -0.401509
  -0.453932
  -0.030394
  -0.460021
  -0.477430
  -0.396007
  -0.250563
  -0.409448
  -0.074088
  -0.195393
  -0.310472
  -0.024471
  -0.278537
  -0.314128
  -0.414241
  0.047431
  -0.202202
  -0.364752
  -0.350331
  -0.653622
  -0.139666
  -0.410691
  -0.449440
  -0.338314
  -0.351504
  -0.145703
  -0.331886
  -0.623554
  -0.134337
  -0.312873
  -0.344916
  -0.378315
  -0.359861
  -0.336273
  -0.339472
  -0.240344
  -0.173079
  -0.243813
  -0.090316
  -0.240735
  -0.220054
  -0.426265
  -0.335823
  -0.478691
  -0.085938
  -0.336415
  -0.355481
  -0.352742
  -0.323584
  -0.288759
  -0.255393
  -0.182145
  -0.235753
  -0.325073
  -0.165823
  -0.374641
  -0.237006
  -0.460028
  -0.395917
  -0.166783
  -0.281885
  -0.378264
  -0.311329
  -0.262227
  -0.296029
  -0.350683
  -0.344444
  -0.269463
  -0.285924
  -0.280019
  -0.213488
  -0.255998
  -0.301980
  -0.372778
  -0.229241
  -0.332778
  -0.277748
  -0.258343
  -0.304481
  -0.236806
  -0.359761
  -0.274192
  -0.298462
  -0.280302
  -0.345052
  -0.313481
  -0.262883
  -0.281890
  -0.252520
  -0.367500
  -0.253040
  -0.264278
  -0.259844
  -0.336185
  -0.248737
  -0.393940
  -0.273288
  -0.294408
  -0.278584
  -0.301085
  -0.256987
  -0.257204
  -0.312434
  -0.227819
  -0.265602
  -0.361861
  -0.241334
  -0.322894
  -0.284308
  -0.250329
  -0.257484
  -0.330133
  -0.250114
  -0.367938
  -0.228969
  -0.301437
  -0.245467
  -0.246968
  -0.265303
  -0.482656
  -0.344373
  -0.306782
  -0.223284
  -0.253813
  -0.436228
  -0.238648
  -0.289182
  -0.224313
  -0.355854
  -0.428897
  -0.243371
  -0.242338
  -0.336618
  -0.281224
  -0.268885
  -0.334181
  -0.247854
  -0.224962
  -0.398063
  -0.322787
  -0.232355
  -0.223161
  -0.256451
  -0.304703
  -0.399209
  -0.372692
  -0.258084
  -0.226092
  -0.303237
  -0.220340
  -0.358047
  -0.211601
  -0.235714
  -0.350106
  -0.272067
  -0.488686
  -0.334612
  -0.240115
  -0.211131
  -0.283847
  -0.336389
  -0.220120
  -0.204392
  -0.390843
  -0.248131
  -0.290327
  -0.401506
  -0.261207
  -0.216843
  -0.374127
  -0.197767
  -0.317276
  -0.368561
  -0.209076
  -0.367907
  -0.223276
  -0.262854
  -0.340593
  -0.321735
  -0.233988
  -0.293856
  -0.195951
  -0.387991
  -0.198960
  -0.347448
  -0.206087
  -0.237084
  -0.446216
  -0.292133
  -0.402755
  -0.342966
  -0.265459
  -0.209355
  -0.192488
  -0.427968
  -0.327371
  -0.210332
  -0.376807
  -0.188996
  -0.373386
  -0.259115
  -0.312088
  -0.234951
  -0.191801
  -0.295641
  -0.181827
  -0.397098
  -0.361769
  -0.194319
  -0.449615
  -0.224514
  -0.286412
  -0.409755
  -0.338593
  -0.266868
  -0.207987
  -0.175279
  -0.184557
  -0.333828
  -0.199743
  -0.375100
  -0.384951
  -0.449605
  -0.244357
  -0.362879
  -0.314270
  -0.463577
  -0.234420
  -0.183181
  -0.307888
  -0.175886
  -0.414392
  -0.215538
  -0.183662
  -0.467808
  -0.418220
  -0.268948
  -0.345208
  -0.203536
  -0.272715
  -0.170225
  -0.173637
  -0.187704
  -0.355874
  -0.392490
  -0.384749
  -0.237716
  -0.293553
  -0.238102
  -0.181657
  -0.307402
  -0.164069
  -0.203811
  -0.171802
  -0.423236
  -0.410250
  -0.264905
  -0.422616
  -0.275508
  -0.336228
  -0.206719
  -0.164145
  -0.355183
  -0.164091
  -0.179654
  -0.395477
  -0.389333
  -0.226051
  -0.467835
  -0.295183
  -0.241986
  -0.322345
  -0.180280
  -0.157092
  -0.171312
  -0.191149
  -0.430906
  -0.365680
  -0.333427
  -0.257312
  -0.429258
  -0.285270
  -0.208409
  -0.479673
  -0.164176
  -0.360399
  -0.158954
  -0.558976
  -0.179532
  -0.393585
  -0.403064
  -0.213709
  -0.296853
  -0.330927
  -0.430082
  -0.249872
  -0.432317
  -0.182751
  -0.160728
  -0.159937
  -0.196604
  -0.360475
  -0.421633
  -0.465623
  -0.330560
  -0.245902
  -0.296396
  -0.214468
  -0.167727
  -0.373019
  -0.157866
  -0.447406
  -0.172314
  -0.409114
  -0.282952
  -0.412158
  -0.222096
  -0.344804
  -0.258917
  -0.191350
  -0.156834
  -0.166155
  -0.424871
  -0.193546
  -0.248434
  -0.381043
  -0.452110
  -0.303380
  -0.228910
  -0.174558
  -0.381504
  -0.158710
  -0.412304
  -0.176851
  -0.336616
  -0.288972
  -0.420814
  -0.217898
  -0.482048
  -0.273114
  -0.352217
  -0.200272
  -0.171693
  -0.517840
  -0.165362
  -0.454067
  -0.472673
  -0.200117
  -0.452431
  -0.269866
  -0.390253
  -0.241151
  -0.330743
  -0.185102
  -0.174568
  -0.293757
  -0.429493
  -0.177495
  -0.429170
  -0.237138
  -0.363279
  -0.384974
  -0.292040
  -0.216645
  -0.178885
  -0.183682
  -0.593381
  -0.472806
  -0.200491
  -0.285503
  -0.404324
  -0.465999
  -0.478874
  -0.202178
  -0.260847
  -0.349580
  -0.513162
  -0.365487
  -0.181127
  -0.324648
  -0.434044
  -0.198714
  -0.450320
  -0.230040
  -0.398786
  -0.236197
  -0.312470
  -0.199781
  -0.194646
  -0.524312
  -0.221338
  -0.473845
  -0.492105
  -0.276046
  -0.370299
  -0.283762
  -0.368493
  -0.222436
  -0.419899
  -0.207602
  -0.534226
  -0.454162
  -0.213411
  -0.460986
  -0.254633
  -0.323750
  -0.337761
  -0.260236
  -0.418916
  -0.224915
  -0.503947
  -0.547730
  -0.221906
  -0.240089
  -0.298440
  -0.485298
  -0.501871
  -0.369433
  -0.307504
  -0.394777
  -0.462374
  -0.253379
  -0.519977
  -0.230205
  -0.462129
  -0.242195
  -0.500020
  -0.280456
  -0.337176
  -0.425014
  -0.362799
  -0.292800
  -0.442026
  -0.254176
  -0.250762
  -0.543447
  -0.516356
  -0.272546
  -0.492475
  -0.324048
  -0.400532
  -0.470266
  -0.285715
  -0.343876
  -0.416863
  -0.266159
  -0.634445
  -0.489070
  -0.275180
  -0.663355
  -0.310973
  -0.512726
  -0.370913
  -0.447494
  -0.395061
  -0.328768
  -0.291392
  -0.465799
  -0.551887
  -0.288528
  -0.308173
  -0.358589
  -0.522301
  -0.423217
  -0.377882
  -0.451261
  -0.493039
  -0.325235
  -0.568282
  -0.507140
  -0.307900
  -0.503700
  -0.317225
  -0.349000
  -0.542490
  -0.405567
  -0.485261
  -0.477789
  -0.434592
  -0.366937
  -0.333713
  -0.573621
  -0.333361
  -0.350531
  -0.563931
  -0.396928
  -0.525327
  -0.616698
  -0.454622
  -0.523370
  -0.417686
  -0.368889
  -0.492945
  -0.354150
  -0.523782
  -0.652701
  -0.365585
  -0.394978
  -0.572093
  -0.452333
  -0.501155
  -0.466777
  -0.412870
  -0.383906
  -0.383246
  -0.594806
  -0.403014
  -0.443237
  -0.499831
  -0.563673
  -0.553022
  -0.459855
  -0.520408
  -0.419084
  -0.548565
  -0.407853
  -0.416197
  -0.556431
  -0.530805
  -0.450579
  -0.605787
  -0.492928
  -0.554557
  -0.511746
  -0.461558
  -0.437506
  -0.655828
  -0.437494
  -0.459959
  -0.774122
  -0.620003
  -0.496381
  -0.589095
  -0.542892
  -0.508167
  -0.553421
  -0.472335
  -0.465982
  -0.598292
  -0.472888
  -0.577388
  -0.716144
  -0.506625
  -0.630489
  -0.544313
  -0.554003
  -0.513275
  -0.495442
  -0.589130
  -0.497270
  -0.662561
  -0.519594
  -0.557955
  -0.598107
  -0.589894
  -0.645309
  -0.555382
  -0.598005
  -0.529545
  -0.523776
  -0.701927
  -0.538891
  -0.610893
  -0.567357
  -0.641944
  -0.636976
  -0.605667
  -0.674435
  -0.635714
  -0.593096
  -0.566596
  -0.557114
  -0.560176
  -0.583476
  -0.674215
  -0.664637
  -0.614793
  -0.645729
  -0.569165
  -0.653255
  -0.666842
  -0.599333
  -0.639121
  -0.587766
  -0.592390
  -0.641503
  -0.597648
  -0.788163
  -0.629542
  -0.659287
  -0.701100
  -0.715476
  -0.692216
  -0.642757
  -0.622295
  -0.618205
  -0.622642
  -0.708883
  -0.668839
  -0.645418
  -0.704342
  -0.680508
  -0.693888
  -0.721631
  -0.661384
  -0.644800
  -0.650050
  -0.675192
  -0.666415
  -0.613577
  -0.691045
  -0.722485
  -0.947623
  -0.739637
  -0.726896
  -0.674729
  -0.687627
  -0.679450
  -0.687160
  -0.754985
  -0.708846
  -0.733843
  -0.690922
  -0.752891
  -0.775032
  -0.708159
  -0.755254
  -0.695632
  -0.701248
  -0.720300
  -0.719930
  -0.663209
  -0.752390
  -0.828912
  -0.771370
  -0.791033
  -0.785751
  -0.847171
  -0.790064
  -0.730563
  -0.723391
  -0.748096
  -0.735085
  -0.760643
  -0.789039
  -0.724806
  -0.820227
  -0.798741
  -0.816717
  -0.748486
  -0.752159
  -0.769000
  -0.771484
  -0.757487
  -0.779248
  -0.795685
  -0.826767
  -0.823379
  -0.818354
  -0.836803
  -0.774400
  -0.775454
  -0.795314
  -0.784601
  -0.811314
  -0.832552
  -0.758312
  -0.837854
  -0.842270
  -0.850902
  -0.792949
  -0.801001
  -0.793848
  -0.808768
  -0.873266
  -0.773125
  -0.848603
  -0.847906
  -0.877735
  -0.872381
  -0.878548
  -0.841423
  -0.907827
  -0.823026
  -0.818688
  -0.836095
  -0.846321
  -0.866990
  -0.918211
  -0.825743
  -1.061614
  -0.855913
  -0.908459
  -0.674485
  -0.857423
  -0.873300
  -0.905771
  -0.840533
  -0.841329
  -0.835482
  -0.858116
  -0.934790
  -0.925059
  -0.897095
  -0.895095
  -0.876772
  -0.870133
  -0.863501
  -0.869340
  -0.852640
  -0.872392
  -0.878245
  -0.871245
  -0.942019
  -0.959832
  -0.875090
  -0.962972
  -0.883640
  -0.889410
  -0.873498
  -0.888890
  -0.885072
  -0.985240
  -0.914436
  -0.873580
  -0.972856
  -0.920048
  -0.886829
  -0.905370
  -0.911748
  -0.887664
  -0.944104
  -0.872826
  -1.002114
  -1.025615
  -0.987983
  -0.732842
  -0.870858
  -0.912258
  -0.942516
  -0.930592
  -0.941449
  -0.924538
  -0.872343
  -0.939968
  -0.862289
  -1.112521
  -0.910280
  -0.774109
  -1.027907
  -0.974455
  -1.036845
  -0.982226
  -1.041365
  -0.953785
  -0.911640
  -0.844956
  -0.940097
  -0.847782
  -0.954517
  -1.034333
  -0.905638
  -1.020060
  -0.990587
  -1.062137
  -0.987777
  -0.973806
  -1.002957
  -0.987093
  -1.007549
  -1.004495
  -1.023745
  -1.065528
  -1.092565
  -1.034142
  -1.109369
  -1.026726
  -1.254950
  -1.009209
  -1.022390
  -1.126070
  -1.040623
  -1.044881
  -0.976476
  -1.048116
  -1.073290
  -1.159552
  -0.895100
  -1.069297
  -1.100062
  -1.109064
  -1.136660
  -1.042603
  -1.071991
  -1.075408
  -1.132084
  -1.200592
  -1.222775
  -1.096792
  -1.100678
  -1.122241
  -1.083993
  -1.121654
  -1.109269
  -1.131786
  -1.145583
  -1.196934
  -1.128757
  -1.039828
  -1.240763
  -1.124384
  -1.134289
  -1.160529
  -1.167714
  -1.076961
  -1.239754
  -1.195524
  -1.099858
  -1.193945
  -1.181339
  -1.243492
  -1.079437
  -1.181572
  -1.245826
  -1.216836
  -1.216456
  -1.155430
  -1.196534
  -1.224110
  -1.306693
  -1.229498
  -1.268093
  -1.236880
  -1.075197
  -1.314197
  -1.211092
  -1.195957
  -1.282611
  -1.333519
  -1.304223
  -1.163156
  -1.282708
  -1.310154
  -1.371077
  -1.273855
  -1.222052
  -1.317946
  -1.299240
  -1.232343
  -1.325804
  -1.365605
  -1.333872
  -1.340775
  -1.412966
  -1.332363
  -0.894781
  -1.244648
  -1.351603
  -1.382262
  -1.180300
  -1.412945
  -1.299777
  -1.375395
  -1.432131
  -1.237389
  -1.302435
  -1.397912
  -1.404081
  -1.400994
  -1.006384
  -1.472955
  -1.369773
  -1.422582
  -1.396421
  -1.239998
  -1.311125
  -1.449743
  -1.416828
  -1.230284
  -1.510537
  -1.438625
  -1.254695
  -1.466992
  -1.499116
  -1.486382
  -1.525354
  -1.389040
  -1.346797
  -1.491584
  -1.520388
  -1.494750
  -1.305737
  -1.478561
  -1.570082
  -1.467154
  -1.477623
  -1.506269
  -1.518357
  -1.464819
  -1.394907
  -1.527789
  -1.525310
  -1.533926
  -1.560872
  -1.616053
  -1.531784
  -1.274635
  -1.422438
  -1.596337
  -1.566177
  -1.596158
  -1.477311
  -1.604214
  -1.037076
  -1.376468
  -1.582381
  -1.612296
  -1.594768
  -1.654327
  -1.557170
  -1.518690
  -1.470046
  -1.619439
  -1.631234
  -1.618803
  -1.088714
  -1.653345
  -1.697386
  -1.628616
  -1.679949
  -1.347416
  -1.708164
  -1.560466
  -1.661161
  -1.437861
  -1.663396
  -1.400481
  -1.449679
  -1.700677
  -1.671892
  -1.627408
  -1.750215
  -1.692723
  -1.648724
  -1.714971
  -1.515109
  -1.553197
  -1.597221
  -1.725076
  -1.739490
  -1.729599
  -1.804811
  -1.750344
  -1.722880
  -1.395102
  -1.568397
  -1.528961
  -1.764061
  -1.771693
  -1.795038
  -1.498463
  -1.644356
  -1.747997
  -1.521780
  -1.705086
  -1.764595
  -1.771047
  -1.794104
  -1.836867
  -1.732249
  -1.788600
  -1.632445
  -1.806999
  -1.684772
  -1.837655
  -1.846997
  -1.801505
  -1.500467
  -1.824336
  -1.865352
  -1.883596
  -1.725451
  -1.584730
  -1.849556
  -1.595400
  -1.806014
  -1.855614
  -1.853252
  -1.900611
  -1.912022
  -1.807800
  -1.502430
  -1.851722
  -1.857494
  -1.879686
  -1.701346
  -1.916664
  -1.733126
  -1.874756
  -1.913817
  -1.587426
  -1.928488
  -1.290063
  -1.867467
  -1.973142
  -1.789453
  -1.911513
  -1.698447
  -1.393824
  -1.941808
  -1.890868
  -1.675386
  -1.919787
  -1.733578
  -1.933898
  -1.958131
  -2.018859
  -1.864001
  -1.799559
  -1.989123
  -1.933004
  -1.977105
  -1.801582
  -1.923924
  -1.989946
  -1.950218
  -1.633722
  -1.939529
  -2.017014
  -2.010539
  -1.865829
  -1.791180
  -1.967914
  -1.708029
  -1.976969
  -1.986511
  -2.037642
  -1.806815
  -1.993476
  -1.955816
  -1.595217
  -2.035384
  -1.761796
  -2.002332
  -2.065109
  -1.878459
  -2.091405
  -2.047256
  -2.007667
  -1.944786
  -2.059518
  -1.997679
  -1.672738
  -2.101926
  -2.033310
  -2.089254
  -1.895576
  -1.778822
  -1.761366
  -2.063079
  -2.018465
  -2.036063
  -2.097540
  -1.982955
  -1.662114
  -2.116512
  -2.127694
  -2.051732
  -1.630145
  -2.105515
  -1.900379
  -2.038112
  -2.008090
  -2.130663
  -1.664023
  -2.056653
  -2.085653
  -2.136713
  -1.788888
  -1.967248
  -2.085457
  -1.843285
  -2.129356
  -2.126929
  -2.106471
  -2.162768
  -2.065859
  -2.103484
  -2.147448
  -2.181214
  -2.169584
  -1.964178
  -2.122546
  -2.139853
  -2.169758
  -2.087011
  -2.097845
  -1.737192
  -2.198178
  -1.385869
  -1.992633
  -2.111403
  -1.814546
  -2.186223
  -1.890652
  -2.195397
  -2.125868
  -2.103719
  -1.540220
  -2.220410
  -2.208944
  -2.068860
  -2.247636
  -1.716667
  -2.147238
  -2.001116
  -2.152223
  -2.246935
  -1.766516
  -2.241155
  -2.168092
  -2.165449
  -2.156018
  -2.241074
  -1.685435
  -2.267909
  -2.054442
  -1.903923
  -1.874985
  -2.262586
  -2.186533
  -1.724153
  -2.250708
  -2.189563
  -1.919785
  -2.261612
  -2.205296
  -2.159083
  -2.278090
  -2.023086
  -2.303798
  -2.199472
  -2.193044
  -2.216408
  -1.795340
  -2.296509
  -2.185930
  -2.215796
  -1.973936
  -2.202817
  -2.296826
  -2.053137
  -2.340423
  -1.942704
  -2.314511
  -2.207871
  -2.231192
  -2.138738
  -2.316509
  -2.169793
  -2.356790
  -2.235608
  -2.066448
  -2.329378
  -2.226574
  -1.534484
  -2.306844
  -2.228352
  -2.211111
  -2.335938
  -1.811215
  -2.244236
  -2.379513
  -2.350824
  -1.903882
  -2.258884
  -1.943546
  -2.366377
  -2.359859
  -2.232731
  -2.094259
  -2.179009
  -2.250630
  -1.694860
  -2.375811
  -2.374547
  -2.224281
  -2.075759
  -2.263033
  -2.226378
  -2.339046
  -2.265753
  -2.248127
  -1.828776
  -2.368774
  -2.384189
  -2.377517
  -2.276177
  -1.860693
  -2.380458
  -1.974648
  -2.398893
  -2.284400
  -2.146998
  -2.272108
  -2.400018
  -2.238026
  -1.578547
  -1.689397
  -2.405543
  -2.040412
  -2.278138
  -2.289210
  -2.230537
  -2.407571
  -2.403878
  -1.826308
  -2.300757
  -1.633327
  -2.422632
  -2.293929
  -2.410071
  -1.821190
  -2.289932
  -2.022917
  -2.310555
  -2.424245
  -2.413950
  -2.273139
  -2.184150
  -2.421635
  -2.311255
  -2.425661
  -2.302660
  -2.426790
  -2.327137
  -1.500741
  -2.060310
  -2.410661
  -2.323674
  -1.840129
  -2.429288
  -2.335848
  -2.285219
  -2.424593
  -2.338307
  -2.341293
  -1.842925
  -1.992993
  -2.429516
  -2.445388
  -2.321815
  -2.350949
  -2.444196
  -1.746626
  -2.165072
  -2.325780
  -2.363908
  -2.354008
  -2.466956
  -2.081363
  -2.456565
  -1.848839
  -2.452505
  -2.361100
  -2.168728
  -2.460692
  -2.269252
  -2.370829
  -2.464394
  -2.002316
  -2.478836
  -2.370726
  -2.369774
  -2.464094
  -1.860302
  -2.406174
  -2.382161
  -2.472799
  -2.159929
  -1.643520
  -2.488484
  -2.365501
  -2.379866
  -2.039296
  -2.391768
  -2.486791
  -1.792718
  -2.470766
  -2.491825
  -2.194159
  -1.424591
  -1.490266
  -2.286130
  -2.396942
  -1.829453
  -2.488287
  -1.970312
  -2.487219
  -2.410007
  -2.412897
  -2.494491
  -2.404051
  -2.409838
  -2.353682
  -2.487686
  -2.130584
  -2.410019
  -1.020043
  -2.009950
  -2.510211
  -2.507376
  -1.739886
  -2.420561
  -2.250456
  -2.501822
  -1.474088
  -2.514981
  -1.751895
  -2.430591
  -2.242352
  -2.520273
  -1.999396
  -2.424141
  -2.509454
  -2.484626
  -2.391444
  -2.434538
  -1.221621
  -2.534732
  -2.132543
  -2.517276
  -1.929649
  -2.531759
  -1.728939
  -2.436320
  -2.436429
  -2.434045
  -2.521841
  -2.450161
  -2.299267
  -2.552293
  -1.605249
  -1.908506
  -2.212673
  -2.527884
  -1.144786
  -2.516014
  -2.476841
  -2.450508
  -2.396843
  -2.458674
  -2.531122
  -2.076420
  -2.456907
  -1.898806
  -2.533882
  -2.552809
  -1.657371
  -2.439983
  -2.312298
  -2.453393
  -2.540357
  -2.265047
  -2.560555
  -1.911309
  -1.514566
  -2.464582
  -2.116338
  -2.458378
  -2.531193
  -1.469435
  -2.543214
  -2.433927
  -2.094678
  -2.550305
  -2.458744
  -2.553498
  -1.132168
  -2.491568
  -1.610582
  -1.776034
  -2.571189
  -2.480751
  -2.531158
  -2.307233
  -2.569472
  -2.459850
  -1.780014
  -1.968494
  -2.558440
  -2.274509
  -1.253539
  -1.453376
  -2.507647
  -2.483999
  -2.483051
  -2.530241
  -0.428434
  -2.546681
  -2.555526
  -2.442087