# vtk DataFile Version 2.0
FSI_Simulation
ASCII

DATASET UNSTRUCTURED_GRID
POINTS 2042 double
  2.500000  0.410000  0.000000
  2.450000  0.410000  0.000000
  2.500000  0.358750  0.000000
  2.455000  0.345150  0.000000
  2.400001  0.410000  0.000000
  2.500000  0.307500  0.000000
  2.409171  0.352960  0.000000
  2.425001  0.303110  0.000000
  2.350001  0.410000  0.000000
  2.359861  0.354270  0.000000
  2.500000  0.256250  0.000000
  2.450000  0.259810  0.000000
  2.375001  0.303110  0.000000
  2.400001  0.259810  0.000000
  2.300002  0.410000  0.000000
  2.500000  0.205000  0.000000
  2.325001  0.303110  0.000000
  2.425001  0.216510  0.000000
  2.300002  0.346410  0.000000
  2.350001  0.259810  0.000000
  2.375001  0.216510  0.000000
  2.450001  0.173210  0.000000
  2.275002  0.303110  0.000000
  2.250002  0.410000  0.000000
  2.300002  0.259810  0.000000
  2.500000  0.153750  0.000000
  2.400001  0.173210  0.000000
  2.250002  0.346410  0.000000
  2.325001  0.216510  0.000000
  2.350001  0.173210  0.000000
  2.429171  0.133880  0.000000
  2.250002  0.259810  0.000000
  2.225002  0.303110  0.000000
  2.275002  0.216510  0.000000
  2.200003  0.410000  0.000000
  2.197273  0.363510  0.000000
  2.375001  0.129900  0.000000
  2.500000  0.102500  0.000000
  2.300002  0.173210  0.000000
  2.450000  0.086600  0.000000
  2.325001  0.129900  0.000000
  2.200002  0.259810  0.000000
  2.225002  0.216510  0.000000
  2.400001  0.086600  0.000000
  2.250002  0.173210  0.000000
  2.170493  0.306770  0.000000
  2.150003  0.410000  0.000000
  2.350001  0.086600  0.000000
  2.500000  0.051250  0.000000
  2.275002  0.129900  0.000000
  2.135423  0.358250  0.000000
  2.429171  0.044630  0.000000
  2.175003  0.216510  0.000000
  2.300002  0.086600  0.000000
  2.150003  0.259810  0.000000
  2.200002  0.173210  0.000000
  2.375001  0.043300  0.000000
  2.225002  0.129900  0.000000
  2.112503  0.313250  0.000000
  2.100003  0.410000  0.000000
  2.325001  0.043300  0.000000
  2.250002  0.086600  0.000000
  2.500000  0.000000  0.000000
  2.450000  0.000000  0.000000
  2.125003  0.216510  0.000000
  2.400001  0.000000  0.000000
  2.150003  0.173210  0.000000
  2.075004  0.366700  0.000000
  2.175003  0.129900  0.000000
  2.275002  0.043300  0.000000
  2.087503  0.269950  0.000000
  2.350001  0.000000  0.000000
  2.200002  0.086600  0.000000
  2.050004  0.410000  0.000000
  2.300002  0.000000  0.000000
  2.050004  0.323400  0.000000
  2.225002  0.043300  0.000000
  2.100003  0.173210  0.000000
  2.125003  0.129900  0.000000
  2.062504  0.226650  0.000000
  2.150003  0.086600  0.000000
  2.025004  0.366700  0.000000
  2.250002  0.000000  0.000000
  2.175003  0.043300  0.000000
  2.025004  0.280100  0.000000
  2.000004  0.410000  0.000000
  2.000004  0.323400  0.000000
  2.200002  0.000000  0.000000
  2.070833  0.133290  0.000000
  2.100003  0.086600  0.000000
  2.037504  0.183350  0.000000
  2.125003  0.043300  0.000000
  1.975004  0.366700  0.000000
  2.000004  0.236790  0.000000
  2.150003  0.000000  0.000000
  1.975004  0.280100  0.000000
  1.950005  0.410000  0.000000
  2.050003  0.086600  0.000000
  1.950005  0.323400  0.000000
  2.012504  0.140050  0.000000
  2.075003  0.043300  0.000000
  1.975004  0.193490  0.000000
  2.100003  0.000000  0.000000
  1.925005  0.366700  0.000000
  1.950005  0.236790  0.000000
  1.925005  0.280100  0.000000
  2.000004  0.086600  0.000000
  1.900005  0.410000  0.000000
  2.025004  0.043300  0.000000
  1.900005  0.323400  0.000000
  1.950005  0.150190  0.000000
  2.050004  0.000000  0.000000
  1.925005  0.193490  0.000000
  1.900005  0.236790  0.000000
  1.875005  0.366700  0.000000
  1.875005  0.280100  0.000000
  1.975004  0.043300  0.000000
  1.937504  0.096750  0.000000
  2.000004  0.000000  0.000000
  1.850005  0.410000  0.000000
  1.902385  0.145780  0.000000
  1.850005  0.323400  0.000000
  1.875005  0.193490  0.000000
  1.850005  0.236790  0.000000
  1.820836  0.365370  0.000000
  1.925005  0.043300  0.000000
  1.950004  0.000000  0.000000
  1.800006  0.410000  0.000000
  1.850005  0.150190  0.000000
  1.877185  0.088810  0.000000
  1.810716  0.280600  0.000000
  1.800006  0.323400  0.000000
  1.820836  0.195410  0.000000
  1.800006  0.236790  0.000000
  1.900005  0.000000  0.000000
  1.875365  0.035430  0.000000
  1.825005  0.106890  0.000000
  1.800006  0.150190  0.000000
  1.750006  0.410000  0.000000
  1.750006  0.358750  0.000000
  1.750006  0.307500  0.000000
  1.750006  0.256250  0.000000
  1.825005  0.043300  0.000000
  1.850005  0.000000  0.000000
  1.750006  0.205000  0.000000
  1.793306  0.076870  0.000000
  1.750006  0.153750  0.000000
  1.700647  0.410000  0.000000
  1.704307  0.327190  0.000000
  1.750006  0.102500  0.000000
  1.800005  0.000000  0.000000
  1.706247  0.242410  0.000000
  1.676067  0.366700  0.000000
  1.679557  0.284150  0.000000
  1.704506  0.168810  0.000000
  1.750006  0.051250  0.000000
  1.682047  0.198780  0.000000
  1.655747  0.327710  0.000000
  1.651497  0.410000  0.000000
  1.750006  0.000000  0.000000
  1.656697  0.241750  0.000000
  1.703756  0.082910  0.000000
  1.678987  0.125940  0.000000
  1.627038  0.366700  0.000000
  1.631177  0.284620  0.000000
  1.654617  0.169080  0.000000
  1.632077  0.198270  0.000000
  1.607338  0.328120  0.000000
  1.602568  0.410000  0.000000
  1.700286  0.000000  0.000000
  1.675606  0.043300  0.000000
  1.655167  0.082380  0.000000
  1.606817  0.241470  0.000000
  1.630817  0.125620  0.000000
  1.578228  0.366700  0.000000
  1.582998  0.284920  0.000000
  1.604737  0.168150  0.000000
  1.578927  0.210800  0.000000
  1.650926  0.000000  0.000000
  1.559008  0.328320  0.000000
  1.553878  0.410000  0.000000
  1.626437  0.043300  0.000000
  1.606667  0.082260  0.000000
  1.556938  0.242380  0.000000
  1.582827  0.125810  0.000000
  1.529639  0.366700  0.000000
  1.534948  0.284960  0.000000
  1.555327  0.166880  0.000000
  1.601947  0.000000  0.000000
  1.530958  0.199809  0.000000
  1.577657  0.043300  0.000000
  1.510679  0.328200  0.000000
  1.505409  0.410000  0.000000
  1.558087  0.082770  0.000000
  1.534737  0.126670  0.000000
  1.507468  0.243799  0.000000
  1.481289  0.366700  0.000000
  1.486919  0.284639  0.000000
  1.506488  0.166499  0.000000
  1.553357  0.000000  0.000000
  1.529257  0.043300  0.000000
  1.482138  0.200989  0.000000
  1.462249  0.327690  0.000000
  1.457170  0.410000  0.000000
  1.509227  0.083990  0.000000
  1.486027  0.128109  0.000000
  1.458509  0.244759  0.000000
  1.433180  0.366700  0.000000
  1.438629  0.283989  0.000000
  1.458938  0.158769  0.000000
  1.505157  0.000000  0.000000
  1.481257  0.043300  0.000000
  1.434188  0.201479  0.000000
  1.459877  0.085670  0.000000
  1.413600  0.326889  0.000000
  1.409180  0.410000  0.000000
  1.409949  0.244799  0.000000
  1.385311  0.366700  0.000000
  1.389570  0.283369  0.000000
  1.409098  0.158419  0.000000
  1.457357  0.000000  0.000000
  1.433657  0.043300  0.000000
  1.386559  0.201039  0.000000
  1.410057  0.086600  0.000000
  1.364761  0.326449  0.000000
  1.361431  0.410000  0.000000
  1.361470  0.243859  0.000000
  1.337681  0.366700  0.000000
  1.409957  0.000000  0.000000
  1.338661  0.284239  0.000000
  1.386467  0.043300  0.000000
  1.354158  0.119669  0.000000
  1.313932  0.410000  0.000000
  1.316301  0.328549  0.000000
  1.332948  0.164269  0.000000
  1.312370  0.242748  0.000000
  1.362977  0.000000  0.000000
  1.290312  0.366699  0.000000
  1.295401  0.283329  0.000000
  1.339687  0.043300  0.000000
  1.325737  0.078679  0.000000
  1.304418  0.123359  0.000000
  1.266683  0.410000  0.000000
  1.266752  0.323399  0.000000
  1.272681  0.238998  0.000000
  1.283219  0.168118  0.000000
  1.316407  0.000000  0.000000
  1.243193  0.366699  0.000000
  1.246192  0.281188  0.000000
  1.293337  0.043299  0.000000
  1.277847  0.081589  0.000000
  1.256418  0.126458  0.000000
  1.219704  0.410000  0.000000
  1.219763  0.323399  0.000000
  1.233399  0.170718  0.000000
  1.222241  0.237348  0.000000
  1.270266  0.000000  0.000000
  1.196335  0.366699  0.000000
  1.247406  0.043299  0.000000
  1.196403  0.280098  0.000000
  1.229047  0.084939  0.000000
  1.205658  0.129048  0.000000
  1.189500  0.207368  0.000000
  1.172976  0.410000  0.000000
  1.173034  0.323399  0.000000
  1.224546  0.000000  0.000000
  1.181519  0.158018  0.000000
  1.201906  0.043299  0.000000
  1.149736  0.366699  0.000000
  1.179366  0.086599  0.000000
  1.143444  0.291068  0.000000
  1.144673  0.247778  0.000000
  1.126507  0.410000  0.000000
  1.142780  0.189578  0.000000
  1.179255  0.000000  0.000000
  1.134778  0.140318  0.000000
  1.156835  0.043299  0.000000
  1.103418  0.366699  0.000000
  1.100876  0.316518  0.000000
  1.099464  0.268148  0.000000
  1.103592  0.219998  0.000000
  1.080319  0.410000  0.000000
  1.096339  0.172138  0.000000
  1.134414  0.000000  0.000000
  1.100766  0.105308  0.000000
  1.058377  0.324419  0.000000
  1.099404  0.056459  0.000000
  1.059365  0.282409  0.000000
  1.062413  0.233329  0.000000
  1.051509  0.361959  0.000000
  1.062411  0.206669  0.000000
  1.062408  0.139999  0.000000
  1.034401  0.410000  0.000000
  1.090003  0.000000  0.000000
  1.032397  0.305960  0.000000
  1.027848  0.333570  0.000000
  1.033774  0.246670  0.000000
  1.028235  0.281830  0.000000
  1.059865  0.078569  0.000000
  1.030782  0.220171  0.000000
  1.033771  0.193330  0.000000
  1.015430  0.368301  0.000000
  1.056853  0.040909  0.000000
  1.013866  0.293331  0.000000
  1.011397  0.313821  0.000000
  1.013865  0.280001  0.000000
  1.013865  0.266671  0.000000
  1.013863  0.240001  0.000000
  1.012304  0.252001  0.000000
  1.025489  0.152841  0.000000
  1.013862  0.226671  0.000000
  1.028357  0.124560  0.000000
  1.002148  0.333162  0.000000
  1.012302  0.214672  0.000000
  1.013861  0.200001  0.000000
  1.032385  0.094040  0.000000
  1.000016  0.300002  0.000000
  1.012301  0.188002  0.000000
  1.013860  0.173331  0.000000
[...]
POINT_DATA 2042
SCALARS pressure double
LOOKUP_TABLE default
  0.182203
  0.002166
  -0.048938
  -0.039080
  0.180647
  0.115158
  0.112522
  -0.003611
  -0.125819
  0.042834
  0.006994
  0.014023
  0.023046
  0.023339
  -0.282346
  -0.019464
  0.060629
  0.035565
  -0.074265
  0.084635
  0.071557
  0.040966
  0.182495
  0.364845
  0.133420
  0.009163
  0.067914
  0.165394
  0.107519
  0.097612
  0.037085
  0.120755
  0.080462
  0.116346
  0.239512
  0.279328
  0.088381
  -0.000306
  0.122153
  0.039364
  0.117263
  0.187179
  0.183009
  0.109801
  0.163239
  0.271418
  0.036994
  0.128652
  -0.014968
  0.153193
  0.201226
  0.109969
  0.186724
  0.151079
  0.233977
  0.180526
  0.139198
  0.173623
  0.215182
  0.342057
  0.140861
  0.168226
  -0.132755
  0.050652
  0.245908
  0.118423
  0.224685
  0.362621
  0.210384
  0.159991
  0.242485
  0.141232
  0.194952
  0.351504
  0.157942
  0.336325
  0.180636
  0.256248
  0.232279
  0.271953
  0.213312
  0.353778
  0.178330
  0.202273
  0.320494
  0.360942
  0.343586
  0.189429
  0.264769
  0.240843
  0.287909
  0.233267
  0.351532
  0.311830
  0.224326
  0.330155
  0.370423
  0.264508
  0.358473
  0.294530
  0.257692
  0.322416
  0.255250
  0.368629
  0.333471
  0.357274
  0.285783
  0.417012
  0.282789
  0.369407
  0.345349
  0.280436
  0.346781
  0.361013
  0.411543
  0.362451
  0.259267
  0.364927
  0.261588
  0.462803
  0.355409
  0.364267
  0.370478
  0.362767
  0.342138
  0.356391
  0.208286
  0.238299
  0.404140
  0.361411
  0.408855
  0.384063
  0.366915
  0.386979
  0.650538
  0.503124
  0.375053
  0.384294
  0.289500
  0.337913
  0.379437
  0.418298
  0.363212
  0.405094
  0.407913
  0.404338
  0.403922
  0.443396
  0.421258
  0.391951
  0.254373
  0.423232
  0.490011
  0.426654
  0.423104
  0.322966
  0.432410
  0.480509
  0.473214
  0.309517
  0.474797
  0.417592
  0.437428
  0.505201
  0.477320
  0.463204
  0.464028
  0.495278
  0.504857
  0.448297
  0.484096
  0.487733
  0.495951
  0.490748
  0.512782
  0.496890
  0.484547
  0.508705
  0.485182
  0.516852
  0.522056
  0.504784
  0.503561
  0.507223
  0.509066
  0.528781
  0.526938
  0.510642
  0.517486
  0.527312
  0.512653
  0.536063
  0.542767
  0.526617
  0.541216
  0.530557
  0.544774
  0.548024
  0.529611
  0.537066
  0.531651
  0.546530
  0.555627
  0.566006
  0.549423
  0.556098
  0.549738
  0.562389
  0.568931
  0.558688
  0.564658
  0.550297
  0.560393
  0.582606
  0.575555
  0.591477
  0.569598
  0.579874
  0.585820
  0.573053
  0.614037
  0.582809
  0.584993
  0.590733
  0.594064
  0.613851
  0.577942
  0.595008
  0.694201
  0.602986
  0.599234
  0.593461
  0.622540
  0.613026
  0.608205
  0.594385
  0.621548
  0.606698
  0.621067
  0.568533
  0.611536
  0.602955
  0.639101
  0.624210
  0.619578
  0.616057
  0.633485
  0.624242
  0.620516
  0.599119
  0.608976
  0.613653
  0.644745
  0.653035
  0.625809
  0.606258
  0.643876
  0.638804
  0.594564
  0.657344
  0.634283
  0.570958
  0.605497
  0.698771
  0.653060
  0.658295
  0.660273
  0.663519
  0.662802
  0.550162
  0.688754
  0.670058
  0.758603
  0.650480
  0.710325
  0.714611
  0.511088
  0.648561
  0.682854
  0.643056
  0.648071
  0.614102
  0.628495
  0.516534
  0.655176
  0.715177
  0.521801
  0.679554
  0.701952
  0.664507
  0.689754
  0.615634
  0.736451
  0.590382
  0.671167
  0.695297
  0.700710
  0.696508
  0.627440
  0.707853
  0.685435
  0.638593
  0.387895
  0.711993
  0.698846
  0.716750
  0.712312
  0.711933
  0.713374
  0.678531
  0.713464
  0.643297
  0.783877
  0.710651
  0.700355
  0.579887
  0.710899
  0.689939
  0.686051
  0.716507
  0.719421
  0.719600
  0.692658
  0.719167
  0.509284
  0.688718
  0.728195
  0.718996
  0.404008
  0.731386
  0.683634
  0.717884
  0.719493
  0.713320
  0.675032
  0.707714
  0.656125
  0.721037
  0.703435
  0.727505
  0.702241
  0.702032
  0.727735
  0.613765
  0.717536
  0.698951
  0.728012
  0.723500
  0.730727
  0.730412
  0.691273
  0.706122
  0.723431
  0.672931
  0.716363
  0.725219
  0.664612
  0.731014
  0.734868
  0.735299
  0.717334
  0.711061
  0.718917
  0.726645
  0.738578
  0.732688
  0.709327
  0.739000
  0.693499
  0.707537
  0.739131
  0.719924
  0.739200
  0.691803
  0.728293
  0.735490
  0.744557
  0.739503
  0.693709
  0.743317
  0.744782
  0.722362
  0.744956
  0.731571
  0.740377
  0.738999
  0.710394
  0.745906
  0.743447
  0.748058
  0.793906
  0.723359
  0.747526
  0.621745
  0.733530
  0.800183
  0.740488
  0.727565
  0.747257
  0.752215
  0.843680
  0.749663
  0.753080
  0.712574
  0.752489
  0.736018
  0.752310
  0.743518
  0.749760
  0.778949
  0.733718
  0.756377
  0.754514
  0.757638
  0.756165
  0.763509
  0.741598
  0.746495
  0.752987
  0.742580
  0.758884
  0.758151
  0.760837
  0.762956
  0.739398
  0.761625
  0.864076
  0.760831
  0.756060
  0.762139
  0.751954
  0.749847
  0.767133
  0.767294
  0.758420
  0.767128
  0.764860
  0.762437
  0.760504
  0.765147
  0.717102
  0.771566
  0.757164
  0.762153
  0.772174
  0.761198
  0.773979
  0.770184
  0.727424
  0.767280
  0.768708
  0.765682
  0.774823
  0.748315
  0.778889
  0.764979
  0.778581
  0.777226
  0.783125
  0.772568
  0.784347
  0.768576
  0.773248
  0.777355
  0.784159
  0.826154
  0.771625
  0.784345
  0.761870
  0.785200
  0.775634
  0.779905
  0.774523
  0.780545
  0.786894
  0.778307
  0.791283
  0.761790
  0.779297
  0.790565
  0.728824
  0.787800
  0.781003
  0.814199
  0.775535
  0.785100
  0.788902
  0.796877
  0.796818
  0.783744
  0.796275
  0.769438
  0.796046
  0.795249
  0.788681
  0.789492
  0.782427
  0.780158
  0.791650
  0.798117
  0.789833
  0.804209
  0.784648
  0.797737
  0.802595
  0.801191
  0.821131
  0.789769
  0.781794
  0.799945
  0.795023
  0.809526
  0.808106
  0.807772
  0.795970
  0.780151
  0.793384
  0.798693
  0.789685
  0.801828
  0.809161
  0.798022
  0.815155
  0.808550
  0.815906
  0.786906
  0.715222
  0.798603
  0.811300
  0.804162
  0.790738
  0.809789
  0.818812
  0.802353
  0.821686
  0.819474
  0.803311
  0.784314
  0.808549
  0.774649
  0.798141
  0.811101
  0.805956
  0.818493
  0.826935
  0.826249
  0.820404
  0.785054
  0.789687
  0.796136
  0.807747
  0.811141
  0.812292
  0.818780
  0.765767
  0.828188
  0.807278
  0.833185
  0.711642
  0.829933
  0.802662
  0.785707
  0.819467
  0.805049
  0.812245
  0.779967
  0.819656
  0.817854
  0.827555
  0.836907
  0.838405
  0.830160
  0.794795
  0.803672
  0.850170
  0.801117
  0.816352
  0.819942
  0.827234
  0.837557
  0.812180
  0.844592
  0.685660
  0.840968
  0.805267
  0.809608
  0.790517
  0.826562
  0.819307
  0.827821
  0.836267
  0.849248
  0.848171
  0.779988
  0.839335
  0.821342
  0.797824
  0.788674
  0.826752
  0.835848
  0.847378
  0.819456
  0.856131
  0.807756
  0.849640
  0.806793
  0.816249
  0.790778
  0.834718
  0.816253
  0.835492
  0.825639
  0.845395
  0.858627
  0.790339
  0.858180
  0.787501
  0.819880
  0.847416
  0.799621
  0.826827
  0.799501
  0.844179
  0.833973
  0.857278
  0.866982
  0.817988
  0.828298
  0.857291
  0.790317
  0.841492
  0.807969
  0.831342
  0.842787
  0.853815
  0.871509
  0.866592
  0.836116
  0.786460
  0.853520
  0.830231
  0.799734
  0.824318
  0.781537
  0.867017
  0.851187
  0.841042
  0.899946
  0.807143
  0.880003
  0.819203
  0.835294
  0.862240
  0.790349
  0.847497
  0.840210
  0.861094
  0.849097
  0.882811
  0.875360
  0.862519
  0.858174
  0.836579
  0.772962
  0.838697
  0.816549
  0.857569
  0.845495
  0.876059
  0.803854
  0.890185
  0.728893
  0.842849
  0.868483
  0.784830
  0.852529
  0.827267
  0.853372
  0.868021
  0.843962
  0.892524
  0.765952
  0.853231
  0.883838
  0.863718
  0.843396
  0.847518
  0.761893
  0.818315
  0.862406
  0.848658
  0.800678
  0.881981
  0.879935
  0.902231
  0.843143
  0.873312
  0.795361
  0.857824
  0.832098
  0.808177
  0.855560
  0.872204
  0.845992
  0.899790
  0.894327
  0.849895
  0.783038
  0.866422
  0.844076
  0.848068
  0.820291
  0.796389
  0.886055
  0.863436
  0.848945
  0.910494
  0.783232
  0.843432
  0.881955
  0.639239
  0.861893
  0.787497
  0.834255
  0.807961
  0.854515
  0.873095
  0.903006
  0.844973
  0.778720
  0.905406
  0.873598
  0.850929
  0.840232
  0.820642
  0.862022
  0.845558
  0.795850
  0.886429
  0.654536
  0.859988
  0.914557
  0.839567
  0.891100
  0.867605
  0.778987
  0.835661
  0.841310
  0.806744
  0.850565
  0.871156
  0.902985
  0.837946
  0.911144
  0.882150
  0.770214
  0.854645
  0.835620
  0.832194
  0.819767
  0.792416
  0.856948
  0.883321
  0.839395
  0.913974
  0.832758
  0.752821
  0.900254
  0.872192
  0.769039
  0.836478
  0.803196
  0.843911
  0.864623
  0.897111
  0.912992
  0.762343
  0.889297
  0.856592
  0.816999
  0.824195
  0.785459
  0.848450
  0.833109
  0.874400
  0.836707
  0.907436
  0.904154
  0.826121
  0.773145
  0.875552
  0.758181
  0.835339
  0.797046
  0.833089
  0.853937
  0.886609
  0.811366
  0.909283
  0.893239
  0.797687
  0.733306
  0.855699
  0.816541
  0.811232
  0.836366
  0.822486
  0.860664
  0.894230
  0.773719
  0.901991
  0.821406
  0.688299
  0.875561
  0.744330
  0.830899
  0.820314
  0.839035
  0.868825
  0.787276
  0.898995
  0.725387
  0.889011
  0.850768
  0.807975
  0.802536
  0.759065
  0.820409
  0.807672
  0.842047
  0.874382
  0.787344
  0.892879
  0.804088
  0.867553
  0.742478
  0.765143
  0.820398
  0.748549
  0.779455
  0.803476
  0.819596
  0.846357
  0.876470
  0.878908
  0.749737
  0.731024
  0.838567
  0.792248
  0.798645
  0.786414
  0.755390
  0.800619
  0.791317
  0.818197
  0.848772
  0.786072
  0.870788
  0.747704
  0.852455
  0.802409
  0.737094
  0.782950
  0.758601
  0.784880
  0.796448
  0.816843
  0.853099
  0.733767
  0.774708
  0.851979
  0.741136
  0.812691
  0.765125
  0.736325
  0.778477
  0.789457
  0.812930
  0.768583
  0.844621
  0.684208
  0.816587
  0.773083
  0.582820
  0.719065
  0.737454
  0.768518
  0.764060
  0.782705
  0.814327
  0.717379
  0.815011
  0.775043
  0.755949
  0.731634
  0.707607
  0.776353
  0.712076
  0.752384
  0.754907
  0.751092
  0.799138
  0.766617
  0.773312
  0.673855
  0.728780
  0.701683
  0.703280
  0.748202
  0.697656
  0.741254
  0.737712
  0.765822
  0.737989
  0.760622
  0.720000
  0.746938
  0.687130
  0.684500
  0.680435
  0.725664
  0.715171
  0.744142
  0.713207
  0.732094
  0.743852
  0.711124
  0.670786
  0.662162
  0.682488
  0.670445
  0.718258
  0.705325
  0.692452
  0.686831
  0.706015
  0.644324
  0.722870
  0.686618
  0.619410
  0.648959
  0.697699
  0.675278
  0.711841
  0.636740
  0.660413
  0.711933
  0.609075
  0.587757
  0.667363
  0.614869
  0.644438
  0.625076
  0.707033
  0.695909
  0.670906
  0.639936
  0.589634
  0.563325
  0.682185
  0.708544
  0.748735
  0.574598
  0.616390
  0.737675
  0.586839
  0.504436
  0.638630
  0.673041
  0.629514
  0.692603
  0.502364
  0.642291
  0.620439
  0.556907
  0.482684
  0.713144
  0.676550
  0.469778
  0.643633
  0.565476
  0.693931
  0.729127
  0.470526
  0.640472
  0.586676
  0.492170
  0.627183
  0.648638
  0.600569
  0.674500
  0.386263
  0.386266
  0.630352
  0.661154
  0.335590
  0.605322
  0.452647
  0.364820
  0.617326
  0.542044
  0.390702
  0.511789
  0.676555
  0.567909
  0.620139
  0.629806
  0.708341
  0.241741
  0.259330
  0.633667
  0.659503
  0.576955
  0.456438
  0.278380
  0.360642
  0.239466
  0.657116
  0.267149
  0.713135
  0.624564
  0.441011
  0.595502
  0.605406
  0.532253
  0.516593
  0.239099
  0.249352
  0.373932
  0.261396
  0.669197
  0.624075
  0.255701
  0.686984
  0.321009
  0.619491
  0.327153
  0.643756
  0.565773
  0.457520
  0.360767
  0.624295
  0.381395
  0.500608
  0.634114
  0.418986
  0.604175
  0.393820
  0.688019
  0.410760
  0.599702
  0.576425
  0.520104
  0.400182
  0.650958
  0.429331
  0.622856
  0.625145
  0.688809
  0.430578
  0.452673
  0.707355
  0.540233
  0.638111
  0.574255
  0.481006
  0.506177
  0.613533
  0.672695
  0.440685
  0.479266
  0.646201
  0.620749
  0.466105
  0.462350
  0.501555
  0.497437
  0.599212
  0.546482
  0.647613
  0.639448
  0.643292
  0.606633
  0.484109
  0.543067
  0.658285
  0.587743
  0.541375
  0.638456
  0.513345
  0.529738
  0.633970
  0.582691
  0.594692
  0.573385
  0.650195
  0.527590
  0.625671
  0.554578
  0.540459
  0.634343
  0.542452
  0.569055
  0.588439
  0.649015
  0.657138
  0.622565
  0.656162
  0.567643
  0.628947
  0.579476
  0.638357
  0.591005
  0.599612
  0.669909
  0.623653
  0.695325
  0.599693
  0.662750
  0.636184
  0.666639
  0.652464
  0.622948
  0.640200
  0.684421
  0.631581
  0.638402
  0.661555
  0.642808
  0.663329
  0.645888
  0.690004
  0.644082
  0.649271
  0.691808
  0.641838
  0.711755
  0.654747
  0.665825
  0.688522
  0.598489
  0.716572
  0.659431
  0.684352
  0.656510
  0.683735
  0.648982
  0.716651
  0.692829
  0.638016
  0.753627
  0.683350
  0.638667
  0.709964
  0.753506
  0.745504
  0.730807
  0.670594
  0.613467
  0.732539
  0.767773
  0.762450
  0.638571
  0.714884
  0.776075
  0.700975
  0.562506
  0.761324
  0.776143
  0.667191
  0.666224
  0.780292
  0.770514
  0.722533
  0.814630
  0.819393
  0.744158
  0.613175
  0.630223
  0.850627
  0.803491
  0.777591
  0.699263
  0.849210
  0.593075
  0.646388
  0.819400
  0.869371
  0.794966
  0.836400
  0.744952
  0.682288
  0.683274
  0.862181
  0.880907
  0.763823
  0.548803
  0.901644
  0.921594
  0.805664
  0.933904
  0.621176
  0.836015
  0.730105
  0.896485
  0.608628
  0.930530
  0.579894
  0.659210
  0.973702
  0.876842
  0.747860
  0.919773
  0.952531
  0.793290
  1.021084
  0.562133
  0.702359
  0.694413
  0.815749
  1.041052
  1.000800
  1.009391
  1.068926
  0.873521
  0.610053
  0.504637
  0.631344
  1.046122
  1.094592
  0.904376
  0.627149
  0.763441
  1.028569
  0.665022
  0.771559
  1.075189
  0.962350
  1.127644
  1.004257
  0.842032
  1.105691
  0.719050
  0.865526
  0.692193
  1.161902
  1.113112
  0.943672
  0.605649
  1.156317
  1.197533
  0.971986
  0.793528
  0.599614
  1.202508
  0.672218
  0.795176
  1.224745
  1.073543
  1.227118
  1.099848
  0.887315
  0.581868
  1.235994
  1.199245
  1.252559
  0.728445
  0.904217
  0.667614
  1.265792
  1.274057
  0.604455
  1.213830
  0.471580
  1.012206
  1.038877
  0.814711
  1.312799
  0.535285
  0.247240
  1.308787
  0.779550
  0.656607
  1.181336
  0.403509
  1.359212
  1.335757
  1.170709
  0.925329
  0.741361
  1.346680
  1.381086
  0.929771
  0.597590
  1.339808
  1.370211
  1.416620
  0.538660
  1.069796
  1.383947
  1.074295
  0.822046
  0.402578
  0.765508
  0.635345
  1.447510
  1.268349
  1.412559
  0.709523
  1.486038
  0.940183
  0.413271
  1.408065
  0.023946
  1.430414
  0.929927
  0.502363
  1.292882
  1.408039
  1.505632
  0.598962
  1.441093
  1.097804
  0.489235
  1.083986
  1.538715
  1.412024
  0.740164
  0.322945
  0.579446
  0.735117
  1.309121
  1.530559
  1.458785
  0.916852
  0.133683
  1.337524
  0.899598
  1.565160
  0.328150
  1.418439
  0.390719
  1.484737
  0.506544
  1.107777
  0.399463
  1.066157
  1.523009
  1.447650
  0.229250
  0.722280
  1.568813
  0.490275
  0.630985
  1.396028
  1.220779
  1.169369
  0.830336
  1.486636
  1.384857
  0.759901
  1.316421
  0.227009
  1.328561
  1.481893
  1.325674
  0.356070
  0.949549
  0.319164
  0.899461
  0.097386
  0.586631
  1.387277
  0.038529
  1.289919
  0.368364
  0.439290
  1.333571
  1.061179
  -0.107763
  1.194185
  0.980166
  0.649571
  0.510708
  0.126071
  1.214974
  0.035566
  1.167190
  1.133139
  0.221943
  1.036879
  0.123475
  1.139881
  0.686035
  1.029594
  0.015446
  0.561435
  0.373133
  -0.106419
  0.196611
  0.121751
  0.981807
  -0.292590
  0.957095
  0.663476
  -0.193022
  0.831642
  0.868564
  0.351605
  0.090795
  -0.199489
  0.544275
  0.671405
  0.691006
  -0.206428
  -0.002122
  0.678712
  0.276798
  0.453513
  -0.299615
  0.558991
  0.508478
  0.040718
  -0.007567
  -0.026369
  -0.330763
  0.345367
  0.085602
  -0.424081
  0.363436
  -0.062327
  -0.495891
  0.146050
  -0.475984
  0.116584
  -0.067087
  -0.114185
  -0.654894
  -0.237370
  -0.326068
  -0.259803
  -0.166792
  -0.145458
  -0.645144
  -0.037486
  -0.504578
  -0.319202
  -0.268429
  -0.943432
  -0.346694
  -0.672031
  -0.398978
  -0.820067
  -0.663248
  -0.284978
  -1.258232
  -0.516267
  -0.645327
  -0.759770
  -0.792246
  -0.938883
  -1.217002
  -0.980271
  -1.136739
  -0.349756
  -0.862817
  -1.485621
  -1.250158
  -1.137063
  -0.676743
  -0.987312
  -0.549093
  -1.687182
  -1.311913
  -0.847669
  -1.534448
  -1.331012
  -1.282726
  -0.231113
  -0.582646
  -2.096893
  -1.020717
  -1.859197
  -1.636629
  -1.419495
  -1.504503
  -1.871495
  -0.571275
  -1.757533
  -0.612780
  -2.312340
  -1.999870
  -1.820433
  -0.873186
  -2.249608
  -0.854561
  -1.983513
  -2.421181
  -2.100288
  -1.648039
  -1.357946
  -1.926415
  -2.159169
  -2.142934
  -2.346442
  -2.878228
  -2.655160
  -0.469137
  -1.253143
  -2.443055
  -2.411615
  -0.754994
  -2.302780
  -2.540035
  -2.114630
  -2.502545
  -2.792504
  -2.918168
  -0.979965
  -1.108528
  -3.019328
  -2.966643
  -2.116818
  -2.709699
  -2.613190
  -0.702549
  -1.721911
  -2.815437
  -2.798166
  -3.227260
  -3.364121
  -1.424006
  -2.760031
  -0.952664
  -2.883960
  -2.825226
  -1.817220
  -2.824909
  -2.403881
  -3.272540
  -3.304434
  -1.315578
  -3.314467
  -2.833078
  -3.100685
  -2.986964
  -1.074576
  -2.478399
  -2.877706
  -3.464842
  -1.885989
  -0.712100
  -3.060347
  -3.004391
  -3.386670
  -1.465331
  -2.913200
  -3.003492
  -0.990988
  -2.978090
  -3.161063
  -1.957391
  -0.606182
  -0.560424
  -2.474826
  -2.888185
  -1.070511
  -3.204843
  -1.431847
  -2.925203
  -2.925773
  -2.515140
  -2.883445
  -3.151723
  -2.981124
  -2.811225
  -3.123090
  -1.899140
  -2.809072
  -0.206279
  -1.456362
  -2.867336
  -2.815050
  -1.056001
  -2.781743
  -1.986735
  -2.728610
  -0.729634
  -2.783770
  -0.946907
  -3.017773
  -2.361390
  -2.764065
  -1.504853
  -2.674557
  -2.700391
  -2.397058
  -2.673333
  -2.682435
  -0.214734
  -2.661279
  -1.908477
  -2.601950
  -1.369149
  -2.450493
  -1.082749
  -2.551011
  -2.572042
  -2.657271
  -2.587686
  -2.548599
  -2.244702
  -2.398128
  -0.912157
  -1.453168
  -1.805168
  -2.468956
  -0.468456
  -2.381390
  -2.174794
  -2.442566
  -2.367880
  -2.436161
  -2.470084
  -1.745246
  -2.432412
  -1.288448
  -2.396614
  -2.129915
  -1.045108
  -2.253251
  -1.858934
  -2.335462
  -2.388012
  -2.049564
  -2.132088
  -1.400263
  -0.823947
  -2.331115
  -1.578008
  -2.233375
  -2.310441
  -0.786661
  -2.047576
  -2.178602
  -1.710614
  -2.215694
  -2.275018
  -2.302654
  -0.378427
  -2.157629
  -1.018784
  -1.165550
  -2.018448
  -2.267657
  -2.253978
  -1.812384
  -2.120560
  -2.212639
  -1.257526
  -1.400193
  -2.260218
  -1.851890
  -0.345907
  -0.776874
  -2.039950
  -2.145755
  -2.222523
  -2.227929
  0.216805
  -2.203152
  -2.241307
  -2.027307
  -1.472124
  -2.104881
  -2.233431
  -2.207627
  -0.300479
  -2.190154
  -2.219634
  -2.165816
  -2.177718
  -2.202816
  -2.229145
  -1.109402
  -2.149210
  -2.183724
  0.076088
  -2.228510
  -2.082969
  -0.851910
  -2.215475
  -2.198884
  -2.175159
  -2.216671
  -2.181702
  -2.197831
  -2.180511
  -2.164557
  -2.180331
  -2.161717
  -2.232545
  -2.163329
  -0.709964
  -1.549392
  -2.178405
  -2.145688
  -1.184438
  -2.173562
  -2.152509
  -2.051121
  -2.164028
  -1.504076
  -2.151332
  -2.162573
  -1.853126
  -2.146007
  -2.077770
  -2.294439
  -2.101333
  -2.249143
  -2.147207
  -2.329753
  -2.180432
  -2.240358
  -2.138224
  -0.968581
  -2.233092
  -2.133401
  -2.231643
  -2.122613
  -0.783415
  -2.409750
  -2.199631
  -1.097653
  -0.501568
  -2.202735
  -2.428664
  -1.578103
  -1.561354
  -2.080376
  -2.249826
  -2.280160
  -2.507528
  -2.184215
  -2.443279
  -2.391467
  -2.166544
  -2.437485
  -0.314869
  -0.056825
  -0.841601
  -2.388820
  -0.641131
  -2.787663
  -2.466865
  -2.840728
  -2.427952
  -2.415015
  -2.897304
  -2.896111
  -2.501399
  -0.400482
  -2.879490
  -0.939285
  0.124540
  -2.429619
  -1.298093
  -2.368221
  -1.569595
  -2.832622
  0.315254
  -2.958713
  -3.250320
  -2.924982
  -2.936045
  -3.375502
  -3.474589
  -3.470996